# vtk DataFile Version 2.0
  Generated by MUL2 - Zappino
ASCII
DATASET UNSTRUCTURED_GRID
POINTS      810 double
   -0.100000000    0.000000000   -0.003000000
   -0.100000000    0.000000000   -0.002000000
   -0.100000000    0.000000000   -0.001000000
   -0.100000000    0.050000000   -0.003000000
   -0.100000000    0.050000000   -0.002000000
   -0.100000000    0.050000000   -0.001000000
   -0.100000000    0.100000000   -0.003000000
   -0.100000000    0.100000000   -0.002000000
   -0.100000000    0.100000000   -0.001000000
    0.000000000    0.000000000   -0.003000000
    0.000000000    0.000000000   -0.002000000
    0.000000000    0.000000000   -0.001000000
    0.000000000    0.050000000   -0.003000000
    0.000000000    0.050000000   -0.002000000
    0.000000000    0.050000000   -0.001000000
    0.000000000    0.100000000   -0.003000000
    0.000000000    0.100000000   -0.002000000
    0.000000000    0.100000000   -0.001000000
    0.100000000    0.000000000   -0.003000000
    0.100000000    0.000000000   -0.002000000
    0.100000000    0.000000000   -0.001000000
    0.100000000    0.050000000   -0.003000000
    0.100000000    0.050000000   -0.002000000
    0.100000000    0.050000000   -0.001000000
    0.100000000    0.100000000   -0.003000000
    0.100000000    0.100000000   -0.002000000
    0.100000000    0.100000000   -0.001000000
   -0.100000000    0.000000000   -0.001000000
   -0.100000000    0.000000000    0.000000000
   -0.100000000    0.000000000    0.001000000
   -0.100000000    0.050000000   -0.001000000
   -0.100000000    0.050000000    0.000000000
   -0.100000000    0.050000000    0.001000000
   -0.100000000    0.100000000   -0.001000000
   -0.100000000    0.100000000    0.000000000
   -0.100000000    0.100000000    0.001000000
    0.000000000    0.000000000   -0.001000000
    0.000000000    0.000000000    0.000000000
    0.000000000    0.000000000    0.001000000
    0.000000000    0.050000000   -0.001000000
    0.000000000    0.050000000    0.000000000
    0.000000000    0.050000000    0.001000000
    0.000000000    0.100000000   -0.001000000
    0.000000000    0.100000000    0.000000000
    0.000000000    0.100000000    0.001000000
    0.100000000    0.000000000   -0.001000000
    0.100000000    0.000000000    0.000000000
    0.100000000    0.000000000    0.001000000
    0.100000000    0.050000000   -0.001000000
    0.100000000    0.050000000    0.000000000
    0.100000000    0.050000000    0.001000000
    0.100000000    0.100000000   -0.001000000
    0.100000000    0.100000000    0.000000000
    0.100000000    0.100000000    0.001000000
   -0.100000000    0.000000000    0.001000000
   -0.100000000    0.000000000    0.002000000
   -0.100000000    0.000000000    0.003000000
   -0.100000000    0.050000000    0.001000000
   -0.100000000    0.050000000    0.002000000
   -0.100000000    0.050000000    0.003000000
   -0.100000000    0.100000000    0.001000000
   -0.100000000    0.100000000    0.002000000
   -0.100000000    0.100000000    0.003000000
    0.000000000    0.000000000    0.001000000
    0.000000000    0.000000000    0.002000000
    0.000000000    0.000000000    0.003000000
    0.000000000    0.050000000    0.001000000
    0.000000000    0.050000000    0.002000000
    0.000000000    0.050000000    0.003000000
    0.000000000    0.100000000    0.001000000
    0.000000000    0.100000000    0.002000000
    0.000000000    0.100000000    0.003000000
    0.100000000    0.000000000    0.001000000
    0.100000000    0.000000000    0.002000000
    0.100000000    0.000000000    0.003000000
    0.100000000    0.050000000    0.001000000
    0.100000000    0.050000000    0.002000000
    0.100000000    0.050000000    0.003000000
    0.100000000    0.100000000    0.001000000
    0.100000000    0.100000000    0.002000000
    0.100000000    0.100000000    0.003000000
   -0.100000000    0.100000000   -0.003000000
   -0.100000000    0.100000000   -0.002000000
   -0.100000000    0.100000000   -0.001000000
   -0.100000000    0.150000000   -0.003000000
   -0.100000000    0.150000000   -0.002000000
   -0.100000000    0.150000000   -0.001000000
   -0.100000000    0.200000000   -0.003000000
   -0.100000000    0.200000000   -0.002000000
   -0.100000000    0.200000000   -0.001000000
    0.000000000    0.100000000   -0.003000000
    0.000000000    0.100000000   -0.002000000
    0.000000000    0.100000000   -0.001000000
    0.000000000    0.150000000   -0.003000000
    0.000000000    0.150000000   -0.002000000
    0.000000000    0.150000000   -0.001000000
    0.000000000    0.200000000   -0.003000000
    0.000000000    0.200000000   -0.002000000
    0.000000000    0.200000000   -0.001000000
    0.100000000    0.100000000   -0.003000000
    0.100000000    0.100000000   -0.002000000
    0.100000000    0.100000000   -0.001000000
    0.100000000    0.150000000   -0.003000000
    0.100000000    0.150000000   -0.002000000
    0.100000000    0.150000000   -0.001000000
    0.100000000    0.200000000   -0.003000000
    0.100000000    0.200000000   -0.002000000
    0.100000000    0.200000000   -0.001000000
   -0.100000000    0.100000000   -0.001000000
   -0.100000000    0.100000000    0.000000000
   -0.100000000    0.100000000    0.001000000
   -0.100000000    0.150000000   -0.001000000
   -0.100000000    0.150000000    0.000000000
   -0.100000000    0.150000000    0.001000000
   -0.100000000    0.200000000   -0.001000000
   -0.100000000    0.200000000    0.000000000
   -0.100000000    0.200000000    0.001000000
    0.000000000    0.100000000   -0.001000000
    0.000000000    0.100000000    0.000000000
    0.000000000    0.100000000    0.001000000
    0.000000000    0.150000000   -0.001000000
    0.000000000    0.150000000    0.000000000
    0.000000000    0.150000000    0.001000000
    0.000000000    0.200000000   -0.001000000
    0.000000000    0.200000000    0.000000000
    0.000000000    0.200000000    0.001000000
    0.100000000    0.100000000   -0.001000000
    0.100000000    0.100000000    0.000000000
    0.100000000    0.100000000    0.001000000
    0.100000000    0.150000000   -0.001000000
    0.100000000    0.150000000    0.000000000
    0.100000000    0.150000000    0.001000000
    0.100000000    0.200000000   -0.001000000
    0.100000000    0.200000000    0.000000000
    0.100000000    0.200000000    0.001000000
   -0.100000000    0.100000000    0.001000000
   -0.100000000    0.100000000    0.002000000
   -0.100000000    0.100000000    0.003000000
   -0.100000000    0.150000000    0.001000000
   -0.100000000    0.150000000    0.002000000
   -0.100000000    0.150000000    0.003000000
   -0.100000000    0.200000000    0.001000000
   -0.100000000    0.200000000    0.002000000
   -0.100000000    0.200000000    0.003000000
    0.000000000    0.100000000    0.001000000
    0.000000000    0.100000000    0.002000000
    0.000000000    0.100000000    0.003000000
    0.000000000    0.150000000    0.001000000
    0.000000000    0.150000000    0.002000000
    0.000000000    0.150000000    0.003000000
    0.000000000    0.200000000    0.001000000
    0.000000000    0.200000000    0.002000000
    0.000000000    0.200000000    0.003000000
    0.100000000    0.100000000    0.001000000
    0.100000000    0.100000000    0.002000000
    0.100000000    0.100000000    0.003000000
    0.100000000    0.150000000    0.001000000
    0.100000000    0.150000000    0.002000000
    0.100000000    0.150000000    0.003000000
    0.100000000    0.200000000    0.001000000
    0.100000000    0.200000000    0.002000000
    0.100000000    0.200000000    0.003000000
   -0.100000000    0.200000000   -0.003000000
   -0.100000000    0.200000000   -0.002000000
   -0.100000000    0.200000000   -0.001000000
   -0.100000000    0.250000000   -0.003000000
   -0.100000000    0.250000000   -0.002000000
   -0.100000000    0.250000000   -0.001000000
   -0.100000000    0.300000000   -0.003000000
   -0.100000000    0.300000000   -0.002000000
   -0.100000000    0.300000000   -0.001000000
    0.000000000    0.200000000   -0.003000000
    0.000000000    0.200000000   -0.002000000
    0.000000000    0.200000000   -0.001000000
    0.000000000    0.250000000   -0.003000000
    0.000000000    0.250000000   -0.002000000
    0.000000000    0.250000000   -0.001000000
    0.000000000    0.300000000   -0.003000000
    0.000000000    0.300000000   -0.002000000
    0.000000000    0.300000000   -0.001000000
    0.100000000    0.200000000   -0.003000000
    0.100000000    0.200000000   -0.002000000
    0.100000000    0.200000000   -0.001000000
    0.100000000    0.250000000   -0.003000000
    0.100000000    0.250000000   -0.002000000
    0.100000000    0.250000000   -0.001000000
    0.100000000    0.300000000   -0.003000000
    0.100000000    0.300000000   -0.002000000
    0.100000000    0.300000000   -0.001000000
   -0.100000000    0.200000000   -0.001000000
   -0.100000000    0.200000000    0.000000000
   -0.100000000    0.200000000    0.001000000
   -0.100000000    0.250000000   -0.001000000
   -0.100000000    0.250000000    0.000000000
   -0.100000000    0.250000000    0.001000000
   -0.100000000    0.300000000   -0.001000000
   -0.100000000    0.300000000    0.000000000
   -0.100000000    0.300000000    0.001000000
    0.000000000    0.200000000   -0.001000000
    0.000000000    0.200000000    0.000000000
    0.000000000    0.200000000    0.001000000
    0.000000000    0.250000000   -0.001000000
    0.000000000    0.250000000    0.000000000
    0.000000000    0.250000000    0.001000000
    0.000000000    0.300000000   -0.001000000
    0.000000000    0.300000000    0.000000000
    0.000000000    0.300000000    0.001000000
    0.100000000    0.200000000   -0.001000000
    0.100000000    0.200000000    0.000000000
    0.100000000    0.200000000    0.001000000
[...]
POINT_DATA      810
VECTORS Mode:001-Freq:0.8963E+01Hz double
        -0.776961249E-25        -0.243921772E-23        -0.261389972E-23
        -0.920829859E-25        -0.263082821E-23        -0.456805718E-23
        -0.334448888E-25        -0.524338685E-24        -0.260770776E-23
        -0.586544202E-04        -0.438390443E-03        -0.351212025E-02
        -0.391827675E-04        -0.292525093E-03        -0.350897456E-02
        -0.196066641E-04        -0.145769783E-03        -0.350707877E-02
        -0.141826994E-03        -0.898596015E-03        -0.146541699E-01
        -0.947158260E-04        -0.599283029E-03        -0.146512573E-01
        -0.475433393E-04        -0.298894064E-03        -0.146495080E-01
        -0.106395255E-25        -0.270679164E-23        -0.293348880E-23
        -0.140217350E-25        -0.291590863E-23        -0.512680947E-23
        -0.655420303E-26        -0.583809597E-24        -0.292684145E-23
        -0.744796487E-05        -0.523169031E-03        -0.457838804E-02
        -0.552213113E-05        -0.347734896E-03        -0.457494686E-02
        -0.359203801E-05        -0.174011676E-03        -0.457288389E-02
        -0.206296840E-04        -0.989333127E-03        -0.173312970E-01
        -0.141567163E-04        -0.658262963E-03        -0.173283332E-01
        -0.768308582E-05        -0.329694198E-03        -0.173265596E-01
         0.618294462E-25        -0.266196390E-23        -0.285122549E-23
         0.735060151E-25        -0.287861884E-23        -0.498288851E-23
         0.267909925E-25        -0.576793289E-24        -0.284482632E-23
         0.487410682E-04        -0.480067010E-03        -0.389662389E-02
         0.331165312E-04        -0.320661911E-03        -0.389327596E-02
         0.173932980E-04        -0.160969639E-03        -0.389127712E-02
         0.103171282E-03        -0.962910614E-03        -0.159485613E-01
         0.690067832E-04        -0.642228184E-03        -0.159455263E-01
         0.347874127E-04        -0.321357097E-03        -0.159437065E-01
        -0.334448888E-25        -0.524338685E-24        -0.260770776E-23
         0.615128607E-35         0.807356296E-35        -0.456085272E-23
         0.334448888E-25         0.524338685E-24        -0.260770776E-23
        -0.196066641E-04        -0.145769783E-03        -0.350707877E-02
         0.159458510E-14         0.164072700E-14        -0.350642538E-02
         0.196066641E-04         0.145769783E-03        -0.350707877E-02
        -0.475433393E-04        -0.298894064E-03        -0.146495080E-01
         0.337743499E-14         0.334493483E-14        -0.146489111E-01
         0.475433393E-04         0.298894064E-03        -0.146495080E-01
        -0.655420303E-26        -0.583809597E-24        -0.292684145E-23
         0.205042869E-35         0.410085738E-35        -0.511965906E-23
         0.655420304E-26         0.583809597E-24        -0.292684145E-23
        -0.359203801E-05        -0.174011676E-03        -0.457288389E-02
         0.891901645E-15         0.237853170E-15        -0.457218490E-02
         0.359203801E-05         0.174011676E-03        -0.457288389E-02
        -0.768308582E-05        -0.329694198E-03        -0.173265596E-01
         0.314172461E-14         0.363878269E-15        -0.173259526E-01
         0.768308583E-05         0.329694198E-03        -0.173265596E-01
         0.267909925E-25        -0.576793289E-24        -0.284482632E-23
         0.820171475E-35        -0.820171475E-35        -0.497673851E-23
        -0.267909925E-25         0.576793289E-24        -0.284482632E-23
         0.173932980E-04        -0.160969639E-03        -0.389127712E-02
         0.203839188E-14        -0.205398221E-14        -0.389060252E-02
        -0.173932980E-04         0.160969639E-03        -0.389127712E-02
         0.347874127E-04        -0.321357097E-03        -0.159437065E-01
         0.442809630E-14        -0.393226464E-14        -0.159430908E-01
        -0.347874127E-04         0.321357097E-03        -0.159437065E-01
         0.334448888E-25         0.524338685E-24        -0.260770776E-23
         0.920829859E-25         0.263082821E-23        -0.456805718E-23
         0.776961249E-25         0.243921772E-23        -0.261389972E-23
         0.196066641E-04         0.145769783E-03        -0.350707877E-02
         0.391827675E-04         0.292525093E-03        -0.350897456E-02
         0.586544202E-04         0.438390443E-03        -0.351212025E-02
         0.475433393E-04         0.298894064E-03        -0.146495080E-01
         0.947158260E-04         0.599283029E-03        -0.146512573E-01
         0.141826994E-03         0.898596015E-03        -0.146541699E-01
         0.655420304E-26         0.583809597E-24        -0.292684145E-23
         0.140217350E-25         0.291590863E-23        -0.512680947E-23
         0.106395255E-25         0.270679164E-23        -0.293348880E-23
         0.359203801E-05         0.174011676E-03        -0.457288389E-02
         0.552213113E-05         0.347734896E-03        -0.457494686E-02
         0.744796487E-05         0.523169031E-03        -0.457838804E-02
         0.768308583E-05         0.329694198E-03        -0.173265596E-01
         0.141567163E-04         0.658262963E-03        -0.173283332E-01
         0.206296840E-04         0.989333127E-03        -0.173312970E-01
        -0.267909925E-25         0.576793289E-24        -0.284482632E-23
        -0.735060150E-25         0.287861884E-23        -0.498288851E-23
        -0.618294462E-25         0.266196390E-23        -0.285122549E-23
        -0.173932980E-04         0.160969639E-03        -0.389127712E-02
        -0.331165311E-04         0.320661911E-03        -0.389327596E-02
        -0.487410682E-04         0.480067010E-03        -0.389662389E-02
        -0.347874127E-04         0.321357097E-03        -0.159437065E-01
        -0.690067832E-04         0.642228184E-03        -0.159455263E-01
        -0.103171282E-03         0.962910614E-03        -0.159485613E-01
        -0.141826994E-03        -0.898596015E-03        -0.146541699E-01
        -0.947158260E-04        -0.599283029E-03        -0.146512573E-01
        -0.475433393E-04        -0.298894064E-03        -0.146495080E-01
        -0.208666648E-03        -0.134151177E-02        -0.333935359E-01
        -0.139360814E-03        -0.893897708E-03        -0.333913405E-01
        -0.700447368E-04        -0.446971992E-03        -0.333900221E-01
        -0.252961018E-03        -0.175202204E-02        -0.592690130E-01
        -0.168935330E-03        -0.116725593E-02        -0.592671468E-01
        -0.849146425E-04        -0.583985451E-03        -0.592660252E-01
        -0.206296840E-04        -0.989333127E-03        -0.173312970E-01
        -0.141567163E-04        -0.658262963E-03        -0.173283332E-01
        -0.768308582E-05        -0.329694198E-03        -0.173265596E-01
        -0.378812890E-04        -0.141437373E-02        -0.374757188E-01
        -0.255360714E-04        -0.942380399E-03        -0.374736734E-01
        -0.131898022E-04        -0.471275881E-03        -0.374724461E-01
        -0.569912780E-04        -0.180487606E-02        -0.644086400E-01
        -0.382275349E-04        -0.120304406E-02        -0.644069045E-01
        -0.194632039E-04        -0.601383930E-03        -0.644058621E-01
         0.103171282E-03        -0.962910614E-03        -0.159485613E-01
         0.690067832E-04        -0.642228184E-03        -0.159455263E-01
         0.347874127E-04        -0.321357097E-03        -0.159437065E-01
         0.133711813E-03        -0.141623159E-02        -0.358624376E-01
         0.890949706E-04        -0.943824265E-03        -0.358602129E-01
         0.444680862E-04        -0.472363365E-03        -0.358588813E-01
         0.139023739E-03        -0.182988725E-02        -0.630217042E-01
         0.925243022E-04        -0.121933257E-02        -0.630198382E-01
         0.460285210E-04        -0.610203705E-03        -0.630187196E-01
        -0.475433393E-04        -0.298894064E-03        -0.146495080E-01
         0.337743499E-14         0.334493483E-14        -0.146489111E-01
         0.475433393E-04         0.298894064E-03        -0.146495080E-01
        -0.700447368E-04        -0.446971992E-03        -0.333900221E-01
         0.623622756E-14         0.499613563E-14        -0.333895676E-01
         0.700447368E-04         0.446971993E-03        -0.333900221E-01
        -0.849146425E-04        -0.583985451E-03        -0.592660252E-01
         0.101368252E-13         0.652824154E-14        -0.592656352E-01
         0.849146425E-04         0.583985451E-03        -0.592660252E-01
        -0.768308582E-05        -0.329694198E-03        -0.173265596E-01
         0.314172461E-14         0.363878269E-15        -0.173259526E-01
         0.768308583E-05         0.329694198E-03        -0.173265596E-01
        -0.131898022E-04        -0.471275881E-03        -0.374724461E-01
         0.636544152E-14         0.483435402E-15        -0.374720256E-01
         0.131898022E-04         0.471275881E-03        -0.374724461E-01
        -0.194632039E-04        -0.601383930E-03        -0.644058621E-01
         0.103444771E-13         0.623895370E-15        -0.644055061E-01
         0.194632039E-04         0.601383930E-03        -0.644058621E-01
         0.347874127E-04        -0.321357097E-03        -0.159437065E-01
         0.442809630E-14        -0.393226464E-14        -0.159430908E-01
        -0.347874127E-04         0.321357097E-03        -0.159437065E-01
         0.444680862E-04        -0.472363365E-03        -0.358588813E-01
         0.755816288E-14        -0.551493128E-14        -0.358584274E-01
        -0.444680862E-04         0.472363365E-03        -0.358588813E-01
         0.460285210E-04        -0.610203705E-03        -0.630187196E-01
         0.116211204E-13        -0.694371161E-14        -0.630183342E-01
        -0.460285210E-04         0.610203705E-03        -0.630187196E-01
         0.475433393E-04         0.298894064E-03        -0.146495080E-01
         0.947158260E-04         0.599283029E-03        -0.146512573E-01
         0.141826994E-03         0.898596015E-03        -0.146541699E-01
         0.700447368E-04         0.446971993E-03        -0.333900221E-01
         0.139360814E-03         0.893897708E-03        -0.333913405E-01
         0.208666648E-03         0.134151177E-02        -0.333935359E-01
         0.849146425E-04         0.583985451E-03        -0.592660252E-01
         0.168935330E-03         0.116725593E-02        -0.592671468E-01
         0.252961018E-03         0.175202204E-02        -0.592690130E-01
         0.768308583E-05         0.329694198E-03        -0.173265596E-01
         0.141567163E-04         0.658262963E-03        -0.173283332E-01
         0.206296840E-04         0.989333127E-03        -0.173312970E-01
         0.131898022E-04         0.471275881E-03        -0.374724461E-01
         0.255360715E-04         0.942380399E-03        -0.374736734E-01
         0.378812890E-04         0.141437373E-02        -0.374757188E-01
         0.194632039E-04         0.601383930E-03        -0.644058621E-01
         0.382275349E-04         0.120304406E-02        -0.644069045E-01
         0.569912780E-04         0.180487606E-02        -0.644086400E-01
        -0.347874127E-04         0.321357097E-03        -0.159437065E-01
        -0.690067832E-04         0.642228184E-03        -0.159455263E-01
        -0.103171282E-03         0.962910614E-03        -0.159485613E-01
        -0.444680862E-04         0.472363365E-03        -0.358588813E-01
        -0.890949706E-04         0.943824265E-03        -0.358602129E-01
        -0.133711813E-03         0.141623159E-02        -0.358624376E-01
        -0.460285210E-04         0.610203705E-03        -0.630187196E-01
        -0.925243022E-04         0.121933257E-02        -0.630198382E-01
        -0.139023739E-03         0.182988725E-02        -0.630217042E-01
        -0.252961018E-03        -0.175202204E-02        -0.592690130E-01
        -0.168935330E-03        -0.116725593E-02        -0.592671468E-01
        -0.849146425E-04        -0.583985451E-03        -0.592660252E-01
        -0.278213347E-03        -0.212515480E-02        -0.916872594E-01
        -0.185779073E-03        -0.141619981E-02        -0.916856123E-01
        -0.933529893E-04        -0.708114238E-03        -0.916846245E-01
        -0.290229228E-03        -0.246086886E-02        -0.130017439E+00
        -0.193791211E-03        -0.164010816E-02        -0.130016013E+00
        -0.973634153E-04        -0.819910043E-03        -0.130015158E+00
        -0.569912780E-04        -0.180487606E-02        -0.644086400E-01
        -0.382275349E-04        -0.120304406E-02        -0.644069045E-01
        -0.194632039E-04        -0.601383930E-03        -0.644058621E-01
        -0.763836062E-04        -0.216269691E-02        -0.975716995E-01
        -0.511347768E-04        -0.144131991E-02        -0.975701383E-01
        -0.258863634E-04        -0.720822220E-03        -0.975692019E-01
        -0.951832513E-04        -0.248726194E-02        -0.136416154E+00
        -0.636542387E-04        -0.165758820E-02        -0.136414787E+00
        -0.321260882E-04        -0.829101638E-03        -0.136413968E+00
         0.139023739E-03        -0.182988725E-02        -0.630217042E-01
         0.925243022E-04        -0.121933257E-02        -0.630198382E-01
         0.460285210E-04        -0.610203705E-03        -0.630187196E-01
         0.125186840E-03        -0.220203319E-02        -0.967370828E-01
         0.832507957E-04        -0.146751204E-02        -0.967354500E-01
         0.413228314E-04        -0.734049243E-03        -0.967344700E-01
         0.994429195E-04        -0.253415787E-02        -0.136323354E+00
         0.660642663E-04        -0.168897072E-02        -0.136321954E+00
         0.326960904E-04        -0.844651709E-03        -0.136321113E+00
        -0.849146425E-04        -0.583985451E-03        -0.592660252E-01
         0.101368252E-13         0.652824154E-14        -0.592656352E-01
         0.849146425E-04         0.583985451E-03        -0.592660252E-01
        -0.933529893E-04        -0.708114238E-03        -0.916846245E-01
         0.147092485E-13         0.801548486E-14        -0.916842844E-01
         0.933529893E-04         0.708114238E-03        -0.916846245E-01
        -0.973634153E-04        -0.819910043E-03        -0.130015158E+00
         0.196142836E-13         0.912071863E-14        -0.130014866E+00
         0.973634153E-04         0.819910043E-03        -0.130015158E+00
        -0.194632039E-04        -0.601383930E-03        -0.644058621E-01
         0.103444771E-13         0.623895370E-15        -0.644055061E-01
         0.194632039E-04         0.601383930E-03        -0.644058621E-01
        -0.258863634E-04        -0.720822220E-03        -0.975692019E-01
         0.149658798E-13         0.557296661E-15        -0.975688790E-01
         0.258863634E-04         0.720822220E-03        -0.975692019E-01
        -0.321260882E-04        -0.829101638E-03        -0.136413968E+00
         0.204379841E-13         0.583239589E-15        -0.136413683E+00
         0.321260883E-04         0.829101638E-03        -0.136413968E+00
         0.460285210E-04        -0.610203705E-03        -0.630187196E-01
         0.116211204E-13        -0.694371161E-14        -0.630183342E-01
        -0.460285210E-04         0.610203705E-03        -0.630187196E-01
         0.413228314E-04        -0.734049243E-03        -0.967344700E-01
         0.164649754E-13        -0.808509251E-14        -0.967341322E-01
        -0.413228314E-04         0.734049243E-03        -0.967344700E-01
         0.326960904E-04        -0.844651709E-03        -0.136321113E+00
         0.219348472E-13        -0.923093012E-14        -0.136320823E+00
        -0.326960904E-04         0.844651709E-03        -0.136321113E+00
         0.849146425E-04         0.583985451E-03        -0.592660252E-01
         0.168935330E-03         0.116725593E-02        -0.592671468E-01
         0.252961018E-03         0.175202204E-02        -0.592690130E-01
         0.933529893E-04         0.708114238E-03        -0.916846245E-01
         0.185779073E-03         0.141619981E-02        -0.916856123E-01
         0.278213347E-03         0.212515480E-02        -0.916872594E-01
         0.973634153E-04         0.819910043E-03        -0.130015158E+00
         0.193791211E-03         0.164010816E-02        -0.130016013E+00
         0.290229228E-03         0.246086886E-02        -0.130017439E+00
         0.194632039E-04         0.601383930E-03        -0.644058621E-01
         0.382275349E-04         0.120304406E-02        -0.644069045E-01
         0.569912780E-04         0.180487606E-02        -0.644086400E-01
         0.258863634E-04         0.720822220E-03        -0.975692019E-01
         0.511347768E-04         0.144131991E-02        -0.975701383E-01
         0.763836063E-04         0.216269691E-02        -0.975716995E-01
         0.321260883E-04         0.829101638E-03        -0.136413968E+00
         0.636542387E-04         0.165758820E-02        -0.136414787E+00
         0.951832514E-04         0.248726194E-02        -0.136416154E+00
        -0.460285210E-04         0.610203705E-03        -0.630187196E-01
        -0.925243022E-04         0.121933257E-02        -0.630198382E-01
        -0.139023739E-03         0.182988725E-02        -0.630217042E-01
        -0.413228314E-04         0.734049243E-03        -0.967344700E-01
        -0.832507957E-04         0.146751204E-02        -0.967354500E-01
        -0.125186840E-03         0.220203319E-02        -0.967370828E-01
        -0.326960904E-04         0.844651709E-03        -0.136321113E+00
        -0.660642663E-04         0.168897072E-02        -0.136321954E+00
        -0.994429194E-04         0.253415787E-02        -0.136323354E+00
        -0.290229228E-03        -0.246086886E-02        -0.130017439E+00
        -0.193791211E-03        -0.164010816E-02        -0.130016013E+00
        -0.973634153E-04        -0.819910043E-03        -0.130015158E+00
        -0.293801311E-03        -0.276007443E-02        -0.173636572E+00
        -0.196174212E-03        -0.183944985E-02        -0.173635341E+00
        -0.985585578E-04        -0.919769746E-03        -0.173634604E+00
        -0.292084575E-03        -0.302382306E-02        -0.221943385E+00
        -0.195023029E-03        -0.201523397E-02        -0.221942322E+00
        -0.979724849E-04        -0.100775010E-02        -0.221941685E+00
        -0.951832513E-04        -0.248726194E-02        -0.136416154E+00
        -0.636542387E-04        -0.165758820E-02        -0.136414787E+00
        -0.321260882E-04        -0.829101638E-03        -0.136413968E+00
        -0.112861343E-03        -0.277835634E-02        -0.180390100E+00
        -0.754260283E-04        -0.185182344E-02        -0.180388910E+00
        -0.379915654E-04        -0.926069058E-03        -0.180388197E+00
        -0.129139370E-03        -0.303645980E-02        -0.228940401E+00
        -0.862685103E-04        -0.202397336E-02        -0.228939366E+00
        -0.433985349E-04        -0.101207229E-02        -0.228938745E+00
         0.994429195E-04        -0.253415787E-02        -0.136323354E+00
         0.660642663E-04        -0.168897072E-02        -0.136321954E+00
         0.326960904E-04        -0.844651709E-03        -0.136321113E+00
         0.675314103E-04        -0.282817565E-02        -0.181123757E+00
         0.447760896E-04        -0.188490280E-02        -0.181122559E+00
         0.220318351E-04        -0.942685173E-03        -0.181121839E+00
         0.332144255E-04        -0.308587481E-02        -0.230517688E+00
         0.218957591E-04        -0.205667584E-02        -0.230516661E+00