# vtk DataFile Version 2.0
  Generated by MUL2 - Zappino
ASCII
DATASET UNSTRUCTURED_GRID
POINTS      810 double
   -0.100000000    0.000000000   -0.003000000
   -0.100000000    0.000000000   -0.002000000
   -0.100000000    0.000000000   -0.001000000
   -0.100000000    0.050000000   -0.003000000
   -0.100000000    0.050000000   -0.002000000
   -0.100000000    0.050000000   -0.001000000
   -0.100000000    0.100000000   -0.003000000
   -0.100000000    0.100000000   -0.002000000
   -0.100000000    0.100000000   -0.001000000
    0.000000000    0.000000000   -0.003000000
    0.000000000    0.000000000   -0.002000000
    0.000000000    0.000000000   -0.001000000
    0.000000000    0.050000000   -0.003000000
    0.000000000    0.050000000   -0.002000000
    0.000000000    0.050000000   -0.001000000
    0.000000000    0.100000000   -0.003000000
    0.000000000    0.100000000   -0.002000000
    0.000000000    0.100000000   -0.001000000
    0.100000000    0.000000000   -0.003000000
    0.100000000    0.000000000   -0.002000000
    0.100000000    0.000000000   -0.001000000
    0.100000000    0.050000000   -0.003000000
    0.100000000    0.050000000   -0.002000000
    0.100000000    0.050000000   -0.001000000
    0.100000000    0.100000000   -0.003000000
    0.100000000    0.100000000   -0.002000000
    0.100000000    0.100000000   -0.001000000
   -0.100000000    0.000000000   -0.001000000
   -0.100000000    0.000000000    0.000000000
   -0.100000000    0.000000000    0.001000000
   -0.100000000    0.050000000   -0.001000000
   -0.100000000    0.050000000    0.000000000
   -0.100000000    0.050000000    0.001000000
   -0.100000000    0.100000000   -0.001000000
   -0.100000000    0.100000000    0.000000000
   -0.100000000    0.100000000    0.001000000
    0.000000000    0.000000000   -0.001000000
    0.000000000    0.000000000    0.000000000
    0.000000000    0.000000000    0.001000000
    0.000000000    0.050000000   -0.001000000
    0.000000000    0.050000000    0.000000000
    0.000000000    0.050000000    0.001000000
    0.000000000    0.100000000   -0.001000000
    0.000000000    0.100000000    0.000000000
    0.000000000    0.100000000    0.001000000
    0.100000000    0.000000000   -0.001000000
    0.100000000    0.000000000    0.000000000
    0.100000000    0.000000000    0.001000000
    0.100000000    0.050000000   -0.001000000
    0.100000000    0.050000000    0.000000000
    0.100000000    0.050000000    0.001000000
    0.100000000    0.100000000   -0.001000000
    0.100000000    0.100000000    0.000000000
    0.100000000    0.100000000    0.001000000
   -0.100000000    0.000000000    0.001000000
   -0.100000000    0.000000000    0.002000000
   -0.100000000    0.000000000    0.003000000
   -0.100000000    0.050000000    0.001000000
   -0.100000000    0.050000000    0.002000000
   -0.100000000    0.050000000    0.003000000
   -0.100000000    0.100000000    0.001000000
   -0.100000000    0.100000000    0.002000000
   -0.100000000    0.100000000    0.003000000
    0.000000000    0.000000000    0.001000000
    0.000000000    0.000000000    0.002000000
    0.000000000    0.000000000    0.003000000
    0.000000000    0.050000000    0.001000000
    0.000000000    0.050000000    0.002000000
    0.000000000    0.050000000    0.003000000
    0.000000000    0.100000000    0.001000000
    0.000000000    0.100000000    0.002000000
    0.000000000    0.100000000    0.003000000
    0.100000000    0.000000000    0.001000000
    0.100000000    0.000000000    0.002000000
    0.100000000    0.000000000    0.003000000
    0.100000000    0.050000000    0.001000000
    0.100000000    0.050000000    0.002000000
    0.100000000    0.050000000    0.003000000
    0.100000000    0.100000000    0.001000000
    0.100000000    0.100000000    0.002000000
    0.100000000    0.100000000    0.003000000
   -0.100000000    0.100000000   -0.003000000
   -0.100000000    0.100000000   -0.002000000
   -0.100000000    0.100000000   -0.001000000
   -0.100000000    0.150000000   -0.003000000
   -0.100000000    0.150000000   -0.002000000
   -0.100000000    0.150000000   -0.001000000
   -0.100000000    0.200000000   -0.003000000
   -0.100000000    0.200000000   -0.002000000
   -0.100000000    0.200000000   -0.001000000
    0.000000000    0.100000000   -0.003000000
    0.000000000    0.100000000   -0.002000000
    0.000000000    0.100000000   -0.001000000
    0.000000000    0.150000000   -0.003000000
    0.000000000    0.150000000   -0.002000000
    0.000000000    0.150000000   -0.001000000
    0.000000000    0.200000000   -0.003000000
    0.000000000    0.200000000   -0.002000000
    0.000000000    0.200000000   -0.001000000
    0.100000000    0.100000000   -0.003000000
    0.100000000    0.100000000   -0.002000000
    0.100000000    0.100000000   -0.001000000
    0.100000000    0.150000000   -0.003000000
    0.100000000    0.150000000   -0.002000000
    0.100000000    0.150000000   -0.001000000
    0.100000000    0.200000000   -0.003000000
    0.100000000    0.200000000   -0.002000000
    0.100000000    0.200000000   -0.001000000
   -0.100000000    0.100000000   -0.001000000
   -0.100000000    0.100000000    0.000000000
   -0.100000000    0.100000000    0.001000000
   -0.100000000    0.150000000   -0.001000000
   -0.100000000    0.150000000    0.000000000
   -0.100000000    0.150000000    0.001000000
   -0.100000000    0.200000000   -0.001000000
   -0.100000000    0.200000000    0.000000000
   -0.100000000    0.200000000    0.001000000
    0.000000000    0.100000000   -0.001000000
    0.000000000    0.100000000    0.000000000
    0.000000000    0.100000000    0.001000000
    0.000000000    0.150000000   -0.001000000
    0.000000000    0.150000000    0.000000000
    0.000000000    0.150000000    0.001000000
    0.000000000    0.200000000   -0.001000000
    0.000000000    0.200000000    0.000000000
    0.000000000    0.200000000    0.001000000
    0.100000000    0.100000000   -0.001000000
    0.100000000    0.100000000    0.000000000
    0.100000000    0.100000000    0.001000000
    0.100000000    0.150000000   -0.001000000
    0.100000000    0.150000000    0.000000000
    0.100000000    0.150000000    0.001000000
    0.100000000    0.200000000   -0.001000000
    0.100000000    0.200000000    0.000000000
    0.100000000    0.200000000    0.001000000
   -0.100000000    0.100000000    0.001000000
   -0.100000000    0.100000000    0.002000000
   -0.100000000    0.100000000    0.003000000
   -0.100000000    0.150000000    0.001000000
   -0.100000000    0.150000000    0.002000000
   -0.100000000    0.150000000    0.003000000
   -0.100000000    0.200000000    0.001000000
   -0.100000000    0.200000000    0.002000000
   -0.100000000    0.200000000    0.003000000
    0.000000000    0.100000000    0.001000000
    0.000000000    0.100000000    0.002000000
    0.000000000    0.100000000    0.003000000
    0.000000000    0.150000000    0.001000000
    0.000000000    0.150000000    0.002000000
    0.000000000    0.150000000    0.003000000
    0.000000000    0.200000000    0.001000000
    0.000000000    0.200000000    0.002000000
    0.000000000    0.200000000    0.003000000
    0.100000000    0.100000000    0.001000000
    0.100000000    0.100000000    0.002000000
    0.100000000    0.100000000    0.003000000
    0.100000000    0.150000000    0.001000000
    0.100000000    0.150000000    0.002000000
    0.100000000    0.150000000    0.003000000
    0.100000000    0.200000000    0.001000000
    0.100000000    0.200000000    0.002000000
    0.100000000    0.200000000    0.003000000
   -0.100000000    0.200000000   -0.003000000
   -0.100000000    0.200000000   -0.002000000
   -0.100000000    0.200000000   -0.001000000
   -0.100000000    0.250000000   -0.003000000
   -0.100000000    0.250000000   -0.002000000
   -0.100000000    0.250000000   -0.001000000
   -0.100000000    0.300000000   -0.003000000
   -0.100000000    0.300000000   -0.002000000
   -0.100000000    0.300000000   -0.001000000
    0.000000000    0.200000000   -0.003000000
    0.000000000    0.200000000   -0.002000000
    0.000000000    0.200000000   -0.001000000
    0.000000000    0.250000000   -0.003000000
    0.000000000    0.250000000   -0.002000000
    0.000000000    0.250000000   -0.001000000
    0.000000000    0.300000000   -0.003000000
    0.000000000    0.300000000   -0.002000000
    0.000000000    0.300000000   -0.001000000
    0.100000000    0.200000000   -0.003000000
    0.100000000    0.200000000   -0.002000000
    0.100000000    0.200000000   -0.001000000
    0.100000000    0.250000000   -0.003000000
    0.100000000    0.250000000   -0.002000000
    0.100000000    0.250000000   -0.001000000
    0.100000000    0.300000000   -0.003000000
    0.100000000    0.300000000   -0.002000000
    0.100000000    0.300000000   -0.001000000
   -0.100000000    0.200000000   -0.001000000
   -0.100000000    0.200000000    0.000000000
   -0.100000000    0.200000000    0.001000000
   -0.100000000    0.250000000   -0.001000000
   -0.100000000    0.250000000    0.000000000
   -0.100000000    0.250000000    0.001000000
   -0.100000000    0.300000000   -0.001000000
   -0.100000000    0.300000000    0.000000000
   -0.100000000    0.300000000    0.001000000
    0.000000000    0.200000000   -0.001000000
    0.000000000    0.200000000    0.000000000
    0.000000000    0.200000000    0.001000000
    0.000000000    0.250000000   -0.001000000
    0.000000000    0.250000000    0.000000000
    0.000000000    0.250000000    0.001000000
    0.000000000    0.300000000   -0.001000000
    0.000000000    0.300000000    0.000000000
    0.000000000    0.300000000    0.001000000
    0.100000000    0.200000000   -0.001000000
    0.100000000    0.200000000    0.000000000
    0.100000000    0.200000000    0.001000000
[...]
POINT_DATA      810
VECTORS Mode:001-Freq:0.8940E+01Hz double
        -0.435353261E-25        -0.260089505E-23        -0.279198112E-23
        -0.519887769E-25        -0.280857964E-23        -0.487927084E-23
        -0.246273960E-25        -0.411875298E-24        -0.278526537E-23
        -0.335646648E-04        -0.479418472E-03        -0.395797818E-02
        -0.226334736E-04        -0.319632457E-03        -0.395457851E-02
        -0.115956038E-04        -0.159791744E-03        -0.395253842E-02
        -0.766944420E-04        -0.954980054E-03        -0.159561326E-01
        -0.512550853E-04        -0.636602249E-03        -0.159529685E-01
        -0.257408033E-04        -0.318250652E-03        -0.159510735E-01
         0.152420660E-32        -0.270092849E-23        -0.291479786E-23
         0.180095956E-32        -0.291555213E-23        -0.509403984E-23
         0.805475031E-33        -0.429698276E-24        -0.290782778E-23
         0.107975063E-11        -0.520890332E-03        -0.450097856E-02
         0.724162507E-12        -0.346824830E-03        -0.449745492E-02
         0.367155452E-12        -0.174233438E-03        -0.449534196E-02
         0.377136045E-11        -0.991795137E-03        -0.172255789E-01
         0.251767122E-11        -0.660444546E-03        -0.172224311E-01
         0.126290363E-11        -0.331383690E-03        -0.172205409E-01
         0.435353291E-25        -0.260089501E-23        -0.279198108E-23
         0.519887804E-25        -0.280857959E-23        -0.487927076E-23
         0.246273976E-25        -0.411875291E-24        -0.278526533E-23
         0.335646669E-04        -0.479418464E-03        -0.395797810E-02
         0.226334750E-04        -0.319632452E-03        -0.395457844E-02
         0.115956045E-04        -0.159791741E-03        -0.395253835E-02
         0.766944495E-04        -0.954980040E-03        -0.159561323E-01
         0.512550903E-04        -0.636602240E-03        -0.159529683E-01
         0.257408058E-04        -0.318250648E-03        -0.159510732E-01
        -0.246273960E-25        -0.411875298E-24        -0.278526537E-23
         0.165225647E-34        -0.141990791E-35        -0.487094697E-23
         0.246273960E-25         0.411875298E-24        -0.278526537E-23
        -0.115956038E-04        -0.159791744E-03        -0.395253842E-02
         0.595634898E-15        -0.571981351E-15        -0.395183199E-02
         0.115956038E-04         0.159791744E-03        -0.395253842E-02
        -0.257408033E-04        -0.318250652E-03        -0.159510735E-01
         0.836658865E-15        -0.120329124E-14        -0.159504190E-01
         0.257408033E-04         0.318250652E-03        -0.159510735E-01
         0.805475031E-33        -0.429698276E-24        -0.290782778E-23
        -0.413064118E-35        -0.123919235E-34        -0.508527659E-23
        -0.809605672E-33         0.429698276E-24        -0.290782778E-23
         0.367155452E-12        -0.174233438E-03        -0.449534196E-02
         0.617519367E-15         0.192260827E-15        -0.449461353E-02
        -0.365919007E-12         0.174233438E-03        -0.449534196E-02
         0.126290363E-11        -0.331383690E-03        -0.172205409E-01
         0.864981558E-15         0.338433220E-15        -0.172198819E-01
        -0.126117252E-11         0.331383690E-03        -0.172205409E-01
         0.246273976E-25        -0.411875291E-24        -0.278526533E-23
        -0.330451295E-34         0.129082537E-35        -0.487094689E-23
        -0.246273976E-25         0.411875291E-24        -0.278526533E-23
         0.115956045E-04        -0.159791741E-03        -0.395253835E-02
         0.545726325E-15         0.810888673E-15        -0.395183192E-02
        -0.115956045E-04         0.159791741E-03        -0.395253835E-02
         0.257408058E-04        -0.318250648E-03        -0.159510732E-01
         0.790328706E-15         0.166237001E-14        -0.159504187E-01
        -0.257408058E-04         0.318250648E-03        -0.159510732E-01
         0.246273960E-25         0.411875298E-24        -0.278526537E-23
         0.519887769E-25         0.280857964E-23        -0.487927084E-23
         0.435353261E-25         0.260089505E-23        -0.279198112E-23
         0.115956038E-04         0.159791744E-03        -0.395253842E-02
         0.226334736E-04         0.319632457E-03        -0.395457851E-02
         0.335646648E-04         0.479418472E-03        -0.395797818E-02
         0.257408033E-04         0.318250652E-03        -0.159510735E-01
         0.512550853E-04         0.636602249E-03        -0.159529685E-01
         0.766944420E-04         0.954980054E-03        -0.159561326E-01
        -0.809605672E-33         0.429698276E-24        -0.290782778E-23
        -0.178443699E-32         0.291555213E-23        -0.509403984E-23
        -0.151820426E-32         0.270092849E-23        -0.291479786E-23
        -0.365919007E-12         0.174233438E-03        -0.449534196E-02
        -0.722925395E-12         0.346824830E-03        -0.449745492E-02
        -0.107851311E-11         0.520890332E-03        -0.450097856E-02
        -0.126117252E-11         0.331383690E-03        -0.172205409E-01
        -0.251593968E-11         0.660444546E-03        -0.172224311E-01
        -0.376962865E-11         0.991795137E-03        -0.172255789E-01
        -0.246273976E-25         0.411875291E-24        -0.278526533E-23
        -0.519887804E-25         0.280857959E-23        -0.487927076E-23
        -0.435353291E-25         0.260089501E-23        -0.279198108E-23
        -0.115956045E-04         0.159791741E-03        -0.395253835E-02
        -0.226334750E-04         0.319632452E-03        -0.395457844E-02
        -0.335646669E-04         0.479418464E-03        -0.395797810E-02
        -0.257408058E-04         0.318250648E-03        -0.159510732E-01
        -0.512550903E-04         0.636602240E-03        -0.159529683E-01
        -0.766944495E-04         0.954980040E-03        -0.159561323E-01
        -0.766944420E-04        -0.954980054E-03        -0.159561326E-01
        -0.512550853E-04        -0.636602249E-03        -0.159529685E-01
        -0.257408033E-04        -0.318250652E-03        -0.159510735E-01
        -0.105766364E-03        -0.140200113E-02        -0.356817320E-01
        -0.705071751E-04        -0.934412669E-03        -0.356793142E-01
        -0.352094178E-04        -0.467704922E-03        -0.356778637E-01
        -0.118976197E-03        -0.181207816E-02        -0.625624503E-01
        -0.792731278E-04        -0.120769077E-02        -0.625603377E-01
        -0.395419757E-04        -0.604598212E-03        -0.625590682E-01
         0.377136045E-11        -0.991795137E-03        -0.172255789E-01
         0.251767122E-11        -0.660444546E-03        -0.172224311E-01
         0.126290363E-11        -0.331383690E-03        -0.172205409E-01
         0.763894675E-11        -0.142275076E-02        -0.374434086E-01
         0.509471212E-11        -0.948244581E-03        -0.374411034E-01
         0.254984506E-11        -0.474618266E-03        -0.374397202E-01
         0.123677677E-10        -0.181843536E-02        -0.645466771E-01
         0.824651911E-11        -0.121227530E-02        -0.645446483E-01
         0.412483089E-11        -0.606308802E-03        -0.645434314E-01
         0.766944495E-04        -0.954980040E-03        -0.159561323E-01
         0.512550903E-04        -0.636602240E-03        -0.159529683E-01
         0.257408058E-04        -0.318250648E-03        -0.159510732E-01
         0.105766380E-03        -0.140200112E-02        -0.356817315E-01
         0.705071853E-04        -0.934412658E-03        -0.356793137E-01
         0.352094228E-04        -0.467704917E-03        -0.356778632E-01
         0.118976222E-03        -0.181207814E-02        -0.625624495E-01
         0.792731443E-04        -0.120769076E-02        -0.625603369E-01
         0.395419839E-04        -0.604598205E-03        -0.625590674E-01
        -0.257408033E-04        -0.318250652E-03        -0.159510735E-01
         0.836658865E-15        -0.120329124E-14        -0.159504190E-01
         0.257408033E-04         0.318250652E-03        -0.159510735E-01
        -0.352094178E-04        -0.467704922E-03        -0.356778637E-01
         0.683471580E-15        -0.191247241E-14        -0.356773587E-01
         0.352094178E-04         0.467704922E-03        -0.356778637E-01
        -0.395419757E-04        -0.604598212E-03        -0.625590682E-01
         0.162588071E-15        -0.268272177E-14        -0.625586232E-01
         0.395419757E-04         0.604598212E-03        -0.625590682E-01
         0.126290363E-11        -0.331383690E-03        -0.172205409E-01
         0.864981558E-15         0.338433220E-15        -0.172198819E-01
        -0.126117252E-11         0.331383690E-03        -0.172205409E-01
         0.254984506E-11        -0.474618266E-03        -0.374397202E-01
         0.731070214E-15         0.580396463E-15        -0.374392387E-01
        -0.254838110E-11         0.474618266E-03        -0.374397202E-01
         0.412483089E-11        -0.606308802E-03        -0.645434314E-01
         0.206211529E-15         0.834337445E-15        -0.645430092E-01
        -0.412441812E-11         0.606308802E-03        -0.645434314E-01
         0.257408058E-04        -0.318250648E-03        -0.159510732E-01
         0.790328706E-15         0.166237001E-14        -0.159504187E-01
        -0.257408058E-04         0.318250648E-03        -0.159510732E-01
         0.352094228E-04        -0.467704917E-03        -0.356778632E-01
         0.639763828E-15         0.261145636E-14        -0.356773582E-01
        -0.352094228E-04         0.467704917E-03        -0.356778632E-01
         0.395419839E-04        -0.604598205E-03        -0.625590674E-01
         0.170736077E-15         0.365351579E-14        -0.625586223E-01
        -0.395419839E-04         0.604598205E-03        -0.625590674E-01
         0.257408033E-04         0.318250652E-03        -0.159510735E-01
         0.512550853E-04         0.636602249E-03        -0.159529685E-01
         0.766944420E-04         0.954980054E-03        -0.159561326E-01
         0.352094178E-04         0.467704922E-03        -0.356778637E-01
         0.705071751E-04         0.934412669E-03        -0.356793142E-01
         0.105766364E-03         0.140200113E-02        -0.356817320E-01
         0.395419757E-04         0.604598212E-03        -0.625590682E-01
         0.792731278E-04         0.120769077E-02        -0.625603377E-01
         0.118976197E-03         0.181207816E-02        -0.625624503E-01
        -0.126117252E-11         0.331383690E-03        -0.172205409E-01
        -0.251593968E-11         0.660444546E-03        -0.172224311E-01
        -0.376962865E-11         0.991795137E-03        -0.172255789E-01
        -0.254838110E-11         0.474618266E-03        -0.374397202E-01
        -0.509324769E-11         0.948244581E-03        -0.374411034E-01
        -0.763748223E-11         0.142275076E-02        -0.374434086E-01
        -0.412441812E-11         0.606308802E-03        -0.645434314E-01
        -0.824610612E-11         0.121227530E-02        -0.645446483E-01
        -0.123673547E-10         0.181843536E-02        -0.645466771E-01
        -0.257408058E-04         0.318250648E-03        -0.159510732E-01
        -0.512550903E-04         0.636602240E-03        -0.159529683E-01
        -0.766944495E-04         0.954980040E-03        -0.159561323E-01
        -0.352094228E-04         0.467704917E-03        -0.356778632E-01
        -0.705071853E-04         0.934412658E-03        -0.356793137E-01
        -0.105766380E-03         0.140200112E-02        -0.356817315E-01
        -0.395419839E-04         0.604598205E-03        -0.625590674E-01
        -0.792731443E-04         0.120769076E-02        -0.625603369E-01
        -0.118976222E-03         0.181207814E-02        -0.625624495E-01
        -0.118976197E-03        -0.181207816E-02        -0.625624503E-01
        -0.792731278E-04        -0.120769077E-02        -0.625603377E-01
        -0.395419757E-04        -0.604598212E-03        -0.625590682E-01
        -0.120090293E-03        -0.218319830E-02        -0.959569298E-01
        -0.800062948E-04        -0.145517671E-02        -0.959550208E-01
        -0.398978894E-04        -0.728124453E-03        -0.959538758E-01
        -0.113850295E-03        -0.251617744E-02        -0.135218527E+00
        -0.758444541E-04        -0.167721600E-02        -0.135216843E+00
        -0.378174950E-04        -0.839025059E-03        -0.135215834E+00
         0.123677677E-10        -0.181843536E-02        -0.645466771E-01
         0.824651911E-11        -0.121227530E-02        -0.645446483E-01
         0.412483089E-11        -0.606308802E-03        -0.645434314E-01
         0.177072944E-10        -0.218036061E-02        -0.979603156E-01
         0.118055482E-10        -0.145330656E-02        -0.979584530E-01
         0.590347946E-11        -0.727146739E-03        -0.979573347E-01
         0.234656189E-10        -0.250812711E-02        -0.137118112E+00
         0.156434993E-10        -0.167169921E-02        -0.137116451E+00
         0.782120386E-11        -0.836504989E-03        -0.137115454E+00
         0.118976222E-03        -0.181207814E-02        -0.625624495E-01
         0.792731443E-04        -0.120769076E-02        -0.625603369E-01
         0.395419839E-04        -0.604598205E-03        -0.625590674E-01
         0.120090328E-03        -0.218319828E-02        -0.959569286E-01
         0.800063184E-04        -0.145517669E-02        -0.959550196E-01
         0.398979012E-04        -0.728124445E-03        -0.959538746E-01
         0.113850342E-03        -0.251617742E-02        -0.135218526E+00
         0.758444854E-04        -0.167721599E-02        -0.135216841E+00
         0.378175106E-04        -0.839025051E-03        -0.135215832E+00
        -0.395419757E-04        -0.604598212E-03        -0.625590682E-01
         0.162588071E-15        -0.268272177E-14        -0.625586232E-01
         0.395419757E-04         0.604598212E-03        -0.625590682E-01
        -0.398978894E-04        -0.728124453E-03        -0.959538758E-01
        -0.101981926E-14        -0.346657962E-14        -0.959534760E-01
         0.398978894E-04         0.728124453E-03        -0.959538758E-01
        -0.378174950E-04        -0.839025059E-03        -0.135215834E+00
        -0.215103646E-14        -0.469514910E-14        -0.135215482E+00
         0.378174950E-04         0.839025059E-03        -0.135215834E+00
         0.412483089E-11        -0.606308802E-03        -0.645434314E-01
         0.206211529E-15         0.834337445E-15        -0.645430092E-01
        -0.412441812E-11         0.606308802E-03        -0.645434314E-01
         0.590347946E-11        -0.727146739E-03        -0.979573347E-01
        -0.757033264E-15         0.972256320E-15        -0.979569433E-01
        -0.590499214E-11         0.727146739E-03        -0.979573347E-01
         0.782120386E-11        -0.836504989E-03        -0.137115454E+00
        -0.227824209E-14         0.138263778E-14        -0.137115103E+00
        -0.782575311E-11         0.836504989E-03        -0.137115454E+00
         0.395419839E-04        -0.604598205E-03        -0.625590674E-01
         0.170736077E-15         0.365351579E-14        -0.625586223E-01
        -0.395419839E-04         0.604598205E-03        -0.625590674E-01
         0.398979012E-04        -0.728124445E-03        -0.959538746E-01
        -0.645121421E-15         0.466617590E-14        -0.959534748E-01
        -0.398979012E-04         0.728124445E-03        -0.959538746E-01
         0.378175106E-04        -0.839025051E-03        -0.135215832E+00
        -0.251062769E-14         0.538901323E-14        -0.135215481E+00
        -0.378175106E-04         0.839025051E-03        -0.135215832E+00
         0.395419757E-04         0.604598212E-03        -0.625590682E-01
         0.792731278E-04         0.120769077E-02        -0.625603377E-01
         0.118976197E-03         0.181207816E-02        -0.625624503E-01
         0.398978894E-04         0.728124453E-03        -0.959538758E-01
         0.800062948E-04         0.145517671E-02        -0.959550208E-01
         0.120090293E-03         0.218319830E-02        -0.959569298E-01
         0.378174950E-04         0.839025059E-03        -0.135215834E+00
         0.758444541E-04         0.167721600E-02        -0.135216843E+00
         0.113850295E-03         0.251617744E-02        -0.135218527E+00
        -0.412441812E-11         0.606308802E-03        -0.645434314E-01
        -0.824610612E-11         0.121227530E-02        -0.645446483E-01
        -0.123673547E-10         0.181843536E-02        -0.645466771E-01
        -0.590499214E-11         0.727146739E-03        -0.979573347E-01
        -0.118070609E-10         0.145330656E-02        -0.979584530E-01
        -0.177088075E-10         0.218036061E-02        -0.979603156E-01
        -0.782575311E-11         0.836504989E-03        -0.137115454E+00
        -0.156480443E-10         0.167169921E-02        -0.137116451E+00
        -0.234701614E-10         0.250812711E-02        -0.137118112E+00
        -0.395419839E-04         0.604598205E-03        -0.625590674E-01
        -0.792731443E-04         0.120769076E-02        -0.625603369E-01
        -0.118976222E-03         0.181207814E-02        -0.625624495E-01
        -0.398979012E-04         0.728124445E-03        -0.959538746E-01
        -0.800063184E-04         0.145517669E-02        -0.959550196E-01
        -0.120090328E-03         0.218319828E-02        -0.959569286E-01
        -0.378175106E-04         0.839025051E-03        -0.135215832E+00
        -0.758444854E-04         0.167721599E-02        -0.135216841E+00
        -0.113850342E-03         0.251617742E-02        -0.135218526E+00
        -0.113850295E-03        -0.251617744E-02        -0.135218527E+00
        -0.758444541E-04        -0.167721600E-02        -0.135216843E+00
        -0.378174950E-04        -0.839025059E-03        -0.135215834E+00
        -0.103865420E-03        -0.281240922E-02        -0.179719816E+00
        -0.691900759E-04        -0.187465554E-02        -0.179718342E+00
        -0.344965185E-04        -0.937859754E-03        -0.179717457E+00
        -0.922626825E-04        -0.307328084E-02        -0.228860127E+00
        -0.614603540E-04        -0.204854708E-02        -0.228858841E+00
        -0.306420848E-04        -0.102485111E-02        -0.228858069E+00
         0.234656189E-10        -0.250812711E-02        -0.137118112E+00
         0.156434993E-10        -0.167169921E-02        -0.137116451E+00
         0.782120386E-11        -0.836504989E-03        -0.137115454E+00
         0.294487852E-10        -0.280165729E-02        -0.181452977E+00
         0.196311509E-10        -0.186753380E-02        -0.181451512E+00
         0.981349559E-11        -0.934218652E-03        -0.181450633E+00
         0.354652153E-10        -0.306155914E-02        -0.230399714E+00
         0.236410099E-10        -0.204087582E-02        -0.230398429E+00
         0.118168802E-10        -0.102077996E-02        -0.230397659E+00
         0.113850342E-03        -0.251617742E-02        -0.135218526E+00
         0.758444854E-04        -0.167721599E-02        -0.135216841E+00
         0.378175106E-04        -0.839025051E-03        -0.135215832E+00
         0.103865479E-03        -0.281240919E-02        -0.179719814E+00
         0.691901152E-04        -0.187465553E-02        -0.179718340E+00
         0.344965381E-04        -0.937859746E-03        -0.179717455E+00
         0.922627534E-04        -0.307328082E-02        -0.228860125E+00
         0.614604013E-04        -0.204854707E-02        -0.228858838E+00