# vtk DataFile Version 2.0
  Generated by MUL2 - Zappino
ASCII
DATASET UNSTRUCTURED_GRID
POINTS      810 double
   -0.100000000    0.000000000   -0.003000000
   -0.100000000    0.000000000   -0.002000000
   -0.100000000    0.000000000   -0.001000000
   -0.100000000    0.050000000   -0.003000000
   -0.100000000    0.050000000   -0.002000000
   -0.100000000    0.050000000   -0.001000000
   -0.100000000    0.100000000   -0.003000000
   -0.100000000    0.100000000   -0.002000000
   -0.100000000    0.100000000   -0.001000000
    0.000000000    0.000000000   -0.003000000
    0.000000000    0.000000000   -0.002000000
    0.000000000    0.000000000   -0.001000000
    0.000000000    0.050000000   -0.003000000
    0.000000000    0.050000000   -0.002000000
    0.000000000    0.050000000   -0.001000000
    0.000000000    0.100000000   -0.003000000
    0.000000000    0.100000000   -0.002000000
    0.000000000    0.100000000   -0.001000000
    0.100000000    0.000000000   -0.003000000
    0.100000000    0.000000000   -0.002000000
    0.100000000    0.000000000   -0.001000000
    0.100000000    0.050000000   -0.003000000
    0.100000000    0.050000000   -0.002000000
    0.100000000    0.050000000   -0.001000000
    0.100000000    0.100000000   -0.003000000
    0.100000000    0.100000000   -0.002000000
    0.100000000    0.100000000   -0.001000000
   -0.100000000    0.000000000   -0.001000000
   -0.100000000    0.000000000    0.000000000
   -0.100000000    0.000000000    0.001000000
   -0.100000000    0.050000000   -0.001000000
   -0.100000000    0.050000000    0.000000000
   -0.100000000    0.050000000    0.001000000
   -0.100000000    0.100000000   -0.001000000
   -0.100000000    0.100000000    0.000000000
   -0.100000000    0.100000000    0.001000000
    0.000000000    0.000000000   -0.001000000
    0.000000000    0.000000000    0.000000000
    0.000000000    0.000000000    0.001000000
    0.000000000    0.050000000   -0.001000000
    0.000000000    0.050000000    0.000000000
    0.000000000    0.050000000    0.001000000
    0.000000000    0.100000000   -0.001000000
    0.000000000    0.100000000    0.000000000
    0.000000000    0.100000000    0.001000000
    0.100000000    0.000000000   -0.001000000
    0.100000000    0.000000000    0.000000000
    0.100000000    0.000000000    0.001000000
    0.100000000    0.050000000   -0.001000000
    0.100000000    0.050000000    0.000000000
    0.100000000    0.050000000    0.001000000
    0.100000000    0.100000000   -0.001000000
    0.100000000    0.100000000    0.000000000
    0.100000000    0.100000000    0.001000000
   -0.100000000    0.000000000    0.001000000
   -0.100000000    0.000000000    0.002000000
   -0.100000000    0.000000000    0.003000000
   -0.100000000    0.050000000    0.001000000
   -0.100000000    0.050000000    0.002000000
   -0.100000000    0.050000000    0.003000000
   -0.100000000    0.100000000    0.001000000
   -0.100000000    0.100000000    0.002000000
   -0.100000000    0.100000000    0.003000000
    0.000000000    0.000000000    0.001000000
    0.000000000    0.000000000    0.002000000
    0.000000000    0.000000000    0.003000000
    0.000000000    0.050000000    0.001000000
    0.000000000    0.050000000    0.002000000
    0.000000000    0.050000000    0.003000000
    0.000000000    0.100000000    0.001000000
    0.000000000    0.100000000    0.002000000
    0.000000000    0.100000000    0.003000000
    0.100000000    0.000000000    0.001000000
    0.100000000    0.000000000    0.002000000
    0.100000000    0.000000000    0.003000000
    0.100000000    0.050000000    0.001000000
    0.100000000    0.050000000    0.002000000
    0.100000000    0.050000000    0.003000000
    0.100000000    0.100000000    0.001000000
    0.100000000    0.100000000    0.002000000
    0.100000000    0.100000000    0.003000000
   -0.100000000    0.100000000   -0.003000000
   -0.100000000    0.100000000   -0.002000000
   -0.100000000    0.100000000   -0.001000000
   -0.100000000    0.150000000   -0.003000000
   -0.100000000    0.150000000   -0.002000000
   -0.100000000    0.150000000   -0.001000000
   -0.100000000    0.200000000   -0.003000000
   -0.100000000    0.200000000   -0.002000000
   -0.100000000    0.200000000   -0.001000000
    0.000000000    0.100000000   -0.003000000
    0.000000000    0.100000000   -0.002000000
    0.000000000    0.100000000   -0.001000000
    0.000000000    0.150000000   -0.003000000
    0.000000000    0.150000000   -0.002000000
    0.000000000    0.150000000   -0.001000000
    0.000000000    0.200000000   -0.003000000
    0.000000000    0.200000000   -0.002000000
    0.000000000    0.200000000   -0.001000000
    0.100000000    0.100000000   -0.003000000
    0.100000000    0.100000000   -0.002000000
    0.100000000    0.100000000   -0.001000000
    0.100000000    0.150000000   -0.003000000
    0.100000000    0.150000000   -0.002000000
    0.100000000    0.150000000   -0.001000000
    0.100000000    0.200000000   -0.003000000
    0.100000000    0.200000000   -0.002000000
    0.100000000    0.200000000   -0.001000000
   -0.100000000    0.100000000   -0.001000000
   -0.100000000    0.100000000    0.000000000
   -0.100000000    0.100000000    0.001000000
   -0.100000000    0.150000000   -0.001000000
   -0.100000000    0.150000000    0.000000000
   -0.100000000    0.150000000    0.001000000
   -0.100000000    0.200000000   -0.001000000
   -0.100000000    0.200000000    0.000000000
   -0.100000000    0.200000000    0.001000000
    0.000000000    0.100000000   -0.001000000
    0.000000000    0.100000000    0.000000000
    0.000000000    0.100000000    0.001000000
    0.000000000    0.150000000   -0.001000000
    0.000000000    0.150000000    0.000000000
    0.000000000    0.150000000    0.001000000
    0.000000000    0.200000000   -0.001000000
    0.000000000    0.200000000    0.000000000
    0.000000000    0.200000000    0.001000000
    0.100000000    0.100000000   -0.001000000
    0.100000000    0.100000000    0.000000000
    0.100000000    0.100000000    0.001000000
    0.100000000    0.150000000   -0.001000000
    0.100000000    0.150000000    0.000000000
    0.100000000    0.150000000    0.001000000
    0.100000000    0.200000000   -0.001000000
    0.100000000    0.200000000    0.000000000
    0.100000000    0.200000000    0.001000000
   -0.100000000    0.100000000    0.001000000
   -0.100000000    0.100000000    0.002000000
   -0.100000000    0.100000000    0.003000000
   -0.100000000    0.150000000    0.001000000
   -0.100000000    0.150000000    0.002000000
   -0.100000000    0.150000000    0.003000000
   -0.100000000    0.200000000    0.001000000
   -0.100000000    0.200000000    0.002000000
   -0.100000000    0.200000000    0.003000000
    0.000000000    0.100000000    0.001000000
    0.000000000    0.100000000    0.002000000
    0.000000000    0.100000000    0.003000000
    0.000000000    0.150000000    0.001000000
    0.000000000    0.150000000    0.002000000
    0.000000000    0.150000000    0.003000000
    0.000000000    0.200000000    0.001000000
    0.000000000    0.200000000    0.002000000
    0.000000000    0.200000000    0.003000000
    0.100000000    0.100000000    0.001000000
    0.100000000    0.100000000    0.002000000
    0.100000000    0.100000000    0.003000000
    0.100000000    0.150000000    0.001000000
    0.100000000    0.150000000    0.002000000
    0.100000000    0.150000000    0.003000000
    0.100000000    0.200000000    0.001000000
    0.100000000    0.200000000    0.002000000
    0.100000000    0.200000000    0.003000000
   -0.100000000    0.200000000   -0.003000000
   -0.100000000    0.200000000   -0.002000000
   -0.100000000    0.200000000   -0.001000000
   -0.100000000    0.250000000   -0.003000000
   -0.100000000    0.250000000   -0.002000000
   -0.100000000    0.250000000   -0.001000000
   -0.100000000    0.300000000   -0.003000000
   -0.100000000    0.300000000   -0.002000000
   -0.100000000    0.300000000   -0.001000000
    0.000000000    0.200000000   -0.003000000
    0.000000000    0.200000000   -0.002000000
    0.000000000    0.200000000   -0.001000000
    0.000000000    0.250000000   -0.003000000
    0.000000000    0.250000000   -0.002000000
    0.000000000    0.250000000   -0.001000000
    0.000000000    0.300000000   -0.003000000
    0.000000000    0.300000000   -0.002000000
    0.000000000    0.300000000   -0.001000000
    0.100000000    0.200000000   -0.003000000
    0.100000000    0.200000000   -0.002000000
    0.100000000    0.200000000   -0.001000000
    0.100000000    0.250000000   -0.003000000
    0.100000000    0.250000000   -0.002000000
    0.100000000    0.250000000   -0.001000000
    0.100000000    0.300000000   -0.003000000
    0.100000000    0.300000000   -0.002000000
    0.100000000    0.300000000   -0.001000000
   -0.100000000    0.200000000   -0.001000000
   -0.100000000    0.200000000    0.000000000
   -0.100000000    0.200000000    0.001000000
   -0.100000000    0.250000000   -0.001000000
   -0.100000000    0.250000000    0.000000000
   -0.100000000    0.250000000    0.001000000
   -0.100000000    0.300000000   -0.001000000
   -0.100000000    0.300000000    0.000000000
   -0.100000000    0.300000000    0.001000000
    0.000000000    0.200000000   -0.001000000
    0.000000000    0.200000000    0.000000000
    0.000000000    0.200000000    0.001000000
    0.000000000    0.250000000   -0.001000000
    0.000000000    0.250000000    0.000000000
    0.000000000    0.250000000    0.001000000
    0.000000000    0.300000000   -0.001000000
    0.000000000    0.300000000    0.000000000
    0.000000000    0.300000000    0.001000000
    0.100000000    0.200000000   -0.001000000
    0.100000000    0.200000000    0.000000000
    0.100000000    0.200000000    0.001000000
[...]
POINT_DATA      810
VECTORS Displacements double
        -0.107659291E-14        -0.122770726E-13        -0.161944854E-14
        -0.106047990E-14        -0.964205841E-14        -0.888933446E-15
        -0.105159154E-14        -0.842264948E-14        -0.396406484E-15
         0.239327550E-03         0.285014354E-03        -0.119533357E-04
         0.239412288E-03         0.284455942E-03        -0.794472822E-05
         0.239486639E-03         0.284080779E-03        -0.395177812E-05
         0.428135735E-03         0.544159473E-03        -0.119448965E-04
         0.428297623E-03         0.543550071E-03        -0.793448669E-05
         0.428477133E-03         0.543144318E-03        -0.394400716E-05
         0.000000000E+00        -0.257375249E-14        -0.492439068E-15
         0.000000000E+00        -0.173523225E-14        -0.225798823E-15
         0.000000000E+00        -0.142283854E-14        -0.913006799E-16
         0.174288781E-03         0.258455981E-03        -0.112373830E-04
         0.174291583E-03         0.258478072E-03        -0.746663455E-05
         0.174342275E-03         0.258347264E-03        -0.371309677E-05
         0.325080694E-03         0.519457197E-03        -0.118544701E-04
         0.325088605E-03         0.519652361E-03        -0.786985618E-05
         0.325110688E-03         0.519810559E-03        -0.391056348E-05
         0.107659291E-14        -0.122770726E-13        -0.161944854E-14
         0.106047990E-14        -0.964205841E-14        -0.888933446E-15
         0.105159154E-14        -0.842264948E-14        -0.396406484E-15
         0.773088443E-04         0.267462505E-03        -0.121882485E-04
         0.770667777E-04         0.268648729E-03        -0.810273584E-05
         0.768009458E-04         0.269736628E-03        -0.403240776E-05
         0.206523153E-03         0.524472507E-03        -0.122493721E-04
         0.206362964E-03         0.525963243E-03        -0.812412351E-05
         0.206178989E-03         0.527346126E-03        -0.403517238E-05
        -0.105159154E-14        -0.842264948E-14        -0.396406484E-15
        -0.104875866E-14        -0.806700689E-14         0.000000000E+00
        -0.105159154E-14        -0.842264948E-14         0.396406484E-15
         0.239486639E-03         0.284080779E-03        -0.395177812E-05
         0.239519554E-03         0.283952332E-03         0.313875849E-16
         0.239486639E-03         0.284080779E-03         0.395177812E-05
         0.428477133E-03         0.543144318E-03        -0.394400716E-05
         0.428552308E-03         0.542940581E-03         0.149537993E-15
         0.428477133E-03         0.543144318E-03         0.394400716E-05
         0.000000000E+00        -0.142283854E-14        -0.913006799E-16
         0.000000000E+00        -0.134105416E-14         0.000000000E+00
         0.000000000E+00        -0.142283854E-14         0.913006799E-16
         0.174342275E-03         0.258347264E-03        -0.371309677E-05
         0.174371554E-03         0.258282945E-03         0.494931017E-16
         0.174342275E-03         0.258347264E-03         0.371309677E-05
         0.325110688E-03         0.519810559E-03        -0.391056348E-05
         0.325122548E-03         0.519808340E-03         0.193004889E-15
         0.325110688E-03         0.519810559E-03         0.391056348E-05
         0.105159154E-14        -0.842264948E-14        -0.396406484E-15
         0.104875866E-14        -0.806700689E-14         0.000000000E+00
         0.105159154E-14        -0.842264948E-14         0.396406484E-15
         0.768009458E-04         0.269736628E-03        -0.403240776E-05
         0.766964494E-04         0.270165249E-03         0.282094279E-16
         0.768009458E-04         0.269736628E-03         0.403240776E-05
         0.206178989E-03         0.527346126E-03        -0.403517238E-05
         0.206104630E-03         0.527826692E-03         0.140806740E-15
         0.206178989E-03         0.527346126E-03         0.403517238E-05
        -0.105159154E-14        -0.842264948E-14         0.396406484E-15
        -0.106047990E-14        -0.964205841E-14         0.888933446E-15
        -0.107659291E-14        -0.122770726E-13         0.161944854E-14
         0.239486639E-03         0.284080779E-03         0.395177812E-05
         0.239412288E-03         0.284455942E-03         0.794472822E-05
         0.239327550E-03         0.285014354E-03         0.119533357E-04
         0.428477133E-03         0.543144318E-03         0.394400716E-05
         0.428297623E-03         0.543550071E-03         0.793448669E-05
         0.428135735E-03         0.544159473E-03         0.119448965E-04
         0.000000000E+00        -0.142283854E-14         0.913006799E-16
         0.000000000E+00        -0.173523225E-14         0.225798823E-15
         0.000000000E+00        -0.257375249E-14         0.492439068E-15
         0.174342275E-03         0.258347264E-03         0.371309677E-05
         0.174291583E-03         0.258478072E-03         0.746663455E-05
         0.174288781E-03         0.258455981E-03         0.112373830E-04
         0.325110688E-03         0.519810559E-03         0.391056348E-05
         0.325088605E-03         0.519652361E-03         0.786985618E-05
         0.325080694E-03         0.519457197E-03         0.118544701E-04
         0.105159154E-14        -0.842264948E-14         0.396406484E-15
         0.106047990E-14        -0.964205841E-14         0.888933446E-15
         0.107659291E-14        -0.122770726E-13         0.161944854E-14
         0.768009458E-04         0.269736628E-03         0.403240776E-05
         0.770667777E-04         0.268648729E-03         0.810273584E-05
         0.773088443E-04         0.267462505E-03         0.121882485E-04
         0.206178989E-03         0.527346126E-03         0.403517238E-05
         0.206362964E-03         0.525963243E-03         0.812412351E-05
         0.206523153E-03         0.524472507E-03         0.122493721E-04
         0.428135735E-03         0.544159473E-03        -0.119448965E-04
         0.428297623E-03         0.543550071E-03        -0.793448669E-05
         0.428477133E-03         0.543144318E-03        -0.394400716E-05
         0.589675902E-03         0.800785087E-03        -0.109138721E-04
         0.589850921E-03         0.799812051E-03        -0.725318181E-05
         0.590047991E-03         0.798939690E-03        -0.360790594E-05
         0.736659599E-03         0.105886590E-02        -0.108849554E-04
         0.736841524E-03         0.105810891E-02        -0.723890727E-05
         0.737050707E-03         0.105716423E-02        -0.360435838E-05
         0.325080694E-03         0.519457197E-03        -0.118544701E-04
         0.325088605E-03         0.519652361E-03        -0.786985618E-05
         0.325110688E-03         0.519810559E-03        -0.391056348E-05
         0.466531502E-03         0.783046537E-03        -0.107498679E-04
         0.466533441E-03         0.782989539E-03        -0.714190517E-05
         0.466534991E-03         0.782959531E-03        -0.355161014E-05
         0.607810126E-03         0.104659125E-02        -0.108135163E-04
         0.607808841E-03         0.104676730E-02        -0.719062377E-05
         0.607811225E-03         0.104673612E-02        -0.357993108E-05
         0.206523153E-03         0.524472507E-03        -0.122493721E-04
         0.206362964E-03         0.525963243E-03        -0.812412351E-05
         0.206178989E-03         0.527346126E-03        -0.403517238E-05
         0.343333702E-03         0.784844529E-03        -0.108093914E-04
         0.343164210E-03         0.785636327E-03        -0.718392693E-05
         0.342972883E-03         0.786385038E-03        -0.357324751E-05
         0.482922207E-03         0.104578518E-02        -0.108228484E-04
         0.482746511E-03         0.104676947E-02        -0.720172720E-05
         0.482558187E-03         0.104744179E-02        -0.358685908E-05
         0.428477133E-03         0.543144318E-03        -0.394400716E-05
         0.428552308E-03         0.542940581E-03         0.149537993E-15
         0.428477133E-03         0.543144318E-03         0.394400716E-05
         0.590047991E-03         0.798939690E-03        -0.360790594E-05
         0.590129301E-03         0.798579762E-03         0.364434557E-15
         0.590047991E-03         0.798939690E-03         0.360790594E-05
         0.737050707E-03         0.105716423E-02        -0.360435838E-05
         0.737139047E-03         0.105698945E-02         0.677604566E-15
         0.737050707E-03         0.105716423E-02         0.360435838E-05
         0.325110688E-03         0.519810559E-03        -0.391056348E-05
         0.325122548E-03         0.519808340E-03         0.193004889E-15
         0.325110688E-03         0.519810559E-03         0.391056348E-05
         0.466534991E-03         0.782959531E-03        -0.355161014E-05
         0.466535849E-03         0.782929176E-03         0.414374477E-15
         0.466534991E-03         0.782959531E-03         0.355161014E-05
         0.607811225E-03         0.104673612E-02        -0.357993108E-05
         0.607814486E-03         0.104692478E-02         0.715337119E-15
         0.607811225E-03         0.104673612E-02         0.357993108E-05
         0.206178989E-03         0.527346126E-03        -0.403517238E-05
         0.206104630E-03         0.527826692E-03         0.140806740E-15
         0.206178989E-03         0.527346126E-03         0.403517238E-05
         0.342972883E-03         0.786385038E-03        -0.357324751E-05
         0.342894445E-03         0.786659162E-03         0.347562771E-15
         0.342972883E-03         0.786385038E-03         0.357324751E-05
         0.482558187E-03         0.104744179E-02        -0.358685908E-05
         0.482483535E-03         0.104790138E-02         0.650897045E-15
         0.482558187E-03         0.104744179E-02         0.358685908E-05
         0.428477133E-03         0.543144318E-03         0.394400716E-05
         0.428297623E-03         0.543550071E-03         0.793448669E-05
         0.428135735E-03         0.544159473E-03         0.119448965E-04
         0.590047991E-03         0.798939690E-03         0.360790594E-05
         0.589850921E-03         0.799812051E-03         0.725318181E-05
         0.589675902E-03         0.800785087E-03         0.109138721E-04
         0.737050707E-03         0.105716423E-02         0.360435838E-05
         0.736841524E-03         0.105810891E-02         0.723890727E-05
         0.736659599E-03         0.105886590E-02         0.108849554E-04
         0.325110688E-03         0.519810559E-03         0.391056348E-05
         0.325088605E-03         0.519652361E-03         0.786985618E-05
         0.325080694E-03         0.519457197E-03         0.118544701E-04
         0.466534991E-03         0.782959531E-03         0.355161014E-05
         0.466533441E-03         0.782989539E-03         0.714190517E-05
         0.466531502E-03         0.783046537E-03         0.107498679E-04
         0.607811225E-03         0.104673612E-02         0.357993108E-05
         0.607808841E-03         0.104676730E-02         0.719062378E-05
         0.607810126E-03         0.104659125E-02         0.108135163E-04
         0.206178989E-03         0.527346126E-03         0.403517238E-05
         0.206362964E-03         0.525963243E-03         0.812412351E-05
         0.206523153E-03         0.524472507E-03         0.122493721E-04
         0.342972883E-03         0.786385038E-03         0.357324751E-05
         0.343164210E-03         0.785636327E-03         0.718392693E-05
         0.343333702E-03         0.784844529E-03         0.108093914E-04
         0.482558187E-03         0.104744179E-02         0.358685908E-05
         0.482746511E-03         0.104676947E-02         0.720172720E-05
         0.482922207E-03         0.104578518E-02         0.108228484E-04
         0.736659599E-03         0.105886590E-02        -0.108849554E-04
         0.736841524E-03         0.105810891E-02        -0.723890727E-05
         0.737050707E-03         0.105716423E-02        -0.360435838E-05
         0.877991494E-03         0.131941722E-02        -0.109442742E-04
         0.878174993E-03         0.131852729E-02        -0.727250700E-05
         0.878382357E-03         0.131768970E-02        -0.361736570E-05
         0.101806246E-02         0.158157762E-02        -0.109161663E-04
         0.101824494E-02         0.158017965E-02        -0.724808873E-05
         0.101843280E-02         0.157926477E-02        -0.360026085E-05
         0.607810126E-03         0.104659125E-02        -0.108135163E-04
         0.607808841E-03         0.104676730E-02        -0.719062377E-05
         0.607811225E-03         0.104673612E-02        -0.357993108E-05
         0.748934855E-03         0.131035820E-02        -0.109679959E-04
         0.748933767E-03         0.131039844E-02        -0.728724388E-05
         0.748932671E-03         0.131042183E-02        -0.362436817E-05
         0.889794345E-03         0.157427736E-02        -0.109526399E-04
         0.889794194E-03         0.157380803E-02        -0.727127172E-05
         0.889776628E-03         0.157373572E-02        -0.361148488E-05
         0.482922207E-03         0.104578518E-02        -0.108228484E-04
         0.482746511E-03         0.104676947E-02        -0.720172720E-05
         0.482558187E-03         0.104744179E-02        -0.358685908E-05
         0.623370920E-03         0.130770682E-02        -0.109396203E-04
         0.623195070E-03         0.130865268E-02        -0.726886517E-05
         0.623004819E-03         0.130948397E-02        -0.361529764E-05
         0.763893418E-03         0.157050606E-02        -0.109111573E-04
         0.763716754E-03         0.157095794E-02        -0.724322012E-05
         0.763506898E-03         0.157172297E-02        -0.359731247E-05
         0.737050707E-03         0.105716423E-02        -0.360435838E-05
         0.737139047E-03         0.105698945E-02         0.677604566E-15
         0.737050707E-03         0.105716423E-02         0.360435838E-05
         0.878382357E-03         0.131768970E-02        -0.361736570E-05
         0.878468245E-03         0.131738865E-02         0.109658190E-14
         0.878382357E-03         0.131768970E-02         0.361736571E-05
         0.101843280E-02         0.157926477E-02        -0.360026085E-05
         0.101850319E-02         0.157849289E-02         0.161634830E-14
         0.101843280E-02         0.157926477E-02         0.360026086E-05
         0.607811225E-03         0.104673612E-02        -0.357993108E-05
         0.607814486E-03         0.104692478E-02         0.715337119E-15
         0.607811225E-03         0.104673612E-02         0.357993108E-05
         0.748932671E-03         0.131042183E-02        -0.362436817E-05
         0.748932788E-03         0.131045824E-02         0.113291589E-14
         0.748932671E-03         0.131042183E-02         0.362436817E-05
         0.889776628E-03         0.157373572E-02        -0.361148488E-05
         0.889762559E-03         0.157329227E-02         0.166760800E-14
         0.889776628E-03         0.157373572E-02         0.361148488E-05
         0.482558187E-03         0.104744179E-02        -0.358685908E-05
         0.482483535E-03         0.104790138E-02         0.650897045E-15
         0.482558187E-03         0.104744179E-02         0.358685908E-05
         0.623004819E-03         0.130948397E-02        -0.361529764E-05
         0.622927835E-03         0.130983377E-02         0.105863962E-14
         0.623004819E-03         0.130948397E-02         0.361529764E-05
         0.763506898E-03         0.157172297E-02        -0.359731247E-05
         0.763414336E-03         0.157160606E-02         0.156689967E-14
         0.763506898E-03         0.157172297E-02         0.359731247E-05
         0.737050707E-03         0.105716423E-02         0.360435838E-05
         0.736841524E-03         0.105810891E-02         0.723890727E-05
         0.736659599E-03         0.105886590E-02         0.108849554E-04
         0.878382357E-03         0.131768970E-02         0.361736571E-05
         0.878174993E-03         0.131852729E-02         0.727250701E-05
         0.877991494E-03         0.131941722E-02         0.109442742E-04
         0.101843280E-02         0.157926477E-02         0.360026086E-05
         0.101824494E-02         0.158017965E-02         0.724808874E-05
         0.101806246E-02         0.158157762E-02         0.109161663E-04
         0.607811225E-03         0.104673612E-02         0.357993108E-05
         0.607808841E-03         0.104676730E-02         0.719062378E-05
         0.607810126E-03         0.104659125E-02         0.108135163E-04
         0.748932671E-03         0.131042183E-02         0.362436817E-05
         0.748933767E-03         0.131039844E-02         0.728724388E-05
         0.748934855E-03         0.131035820E-02         0.109679960E-04
         0.889776628E-03         0.157373572E-02         0.361148488E-05
         0.889794194E-03         0.157380803E-02         0.727127173E-05
         0.889794345E-03         0.157427736E-02         0.109526399E-04
         0.482558187E-03         0.104744179E-02         0.358685908E-05
         0.482746511E-03         0.104676947E-02         0.720172720E-05
         0.482922207E-03         0.104578518E-02         0.108228484E-04
         0.623004819E-03         0.130948397E-02         0.361529764E-05
         0.623195070E-03         0.130865268E-02         0.726886517E-05
         0.623370920E-03         0.130770682E-02         0.109396203E-04
         0.763506898E-03         0.157172297E-02         0.359731247E-05
         0.763716754E-03         0.157095794E-02         0.724322012E-05
         0.763893418E-03         0.157050606E-02         0.109111573E-04
         0.101806246E-02         0.158157762E-02        -0.109161663E-04
         0.101824494E-02         0.158017965E-02        -0.724808873E-05
         0.101843280E-02         0.157926477E-02        -0.360026085E-05
         0.115852334E-02         0.184332719E-02        -0.109141644E-04
         0.115870309E-02         0.184238413E-02        -0.725197536E-05
         0.115890087E-02         0.184152901E-02        -0.360644275E-05
         0.129942519E-02         0.210499030E-02        -0.109330638E-04
         0.129960230E-02         0.210480615E-02        -0.727255891E-05
         0.129983194E-02         0.210420551E-02        -0.362477954E-05
         0.889794345E-03         0.157427736E-02        -0.109526399E-04
         0.889794194E-03         0.157380803E-02        -0.727127172E-05
         0.889776628E-03         0.157373572E-02        -0.361148488E-05
         0.103102293E-02         0.183696000E-02        -0.109532367E-04
         0.103102234E-02         0.183693064E-02        -0.727721580E-05
         0.103101851E-02         0.183691835E-02        -0.361879920E-05
         0.117247578E-02         0.209910130E-02        -0.109800511E-04
         0.117247406E-02         0.209982875E-02        -0.730344167E-05
         0.117250446E-02         0.210005608E-02        -0.364010635E-05
         0.763893418E-03         0.157050606E-02        -0.109111573E-04
         0.763716754E-03         0.157095794E-02        -0.724322012E-05
         0.763506898E-03         0.157172297E-02        -0.359731247E-05
         0.904956002E-03         0.183254310E-02        -0.109128028E-04
         0.904778092E-03         0.183341905E-02        -0.725117186E-05
         0.904579418E-03         0.183422276E-02        -0.360602938E-05
         0.104635160E-02         0.209431067E-02        -0.109412822E-04
         0.104617321E-02         0.209593063E-02        -0.727912933E-05