# vtk DataFile Version 2.0
  Generated by MUL2 - Zappino
ASCII
DATASET UNSTRUCTURED_GRID
POINTS      810 double
   -0.100000000    0.000000000   -0.003000000
   -0.100000000    0.000000000   -0.002000000
   -0.100000000    0.000000000   -0.001000000
   -0.100000000    0.050000000   -0.003000000
   -0.100000000    0.050000000   -0.002000000
   -0.100000000    0.050000000   -0.001000000
   -0.100000000    0.100000000   -0.003000000
   -0.100000000    0.100000000   -0.002000000
   -0.100000000    0.100000000   -0.001000000
    0.000000000    0.000000000   -0.003000000
    0.000000000    0.000000000   -0.002000000
    0.000000000    0.000000000   -0.001000000
    0.000000000    0.050000000   -0.003000000
    0.000000000    0.050000000   -0.002000000
    0.000000000    0.050000000   -0.001000000
    0.000000000    0.100000000   -0.003000000
    0.000000000    0.100000000   -0.002000000
    0.000000000    0.100000000   -0.001000000
    0.100000000    0.000000000   -0.003000000
    0.100000000    0.000000000   -0.002000000
    0.100000000    0.000000000   -0.001000000
    0.100000000    0.050000000   -0.003000000
    0.100000000    0.050000000   -0.002000000
    0.100000000    0.050000000   -0.001000000
    0.100000000    0.100000000   -0.003000000
    0.100000000    0.100000000   -0.002000000
    0.100000000    0.100000000   -0.001000000
   -0.100000000    0.000000000   -0.001000000
   -0.100000000    0.000000000    0.000000000
   -0.100000000    0.000000000    0.001000000
   -0.100000000    0.050000000   -0.001000000
   -0.100000000    0.050000000    0.000000000
   -0.100000000    0.050000000    0.001000000
   -0.100000000    0.100000000   -0.001000000
   -0.100000000    0.100000000    0.000000000
   -0.100000000    0.100000000    0.001000000
    0.000000000    0.000000000   -0.001000000
    0.000000000    0.000000000    0.000000000
    0.000000000    0.000000000    0.001000000
    0.000000000    0.050000000   -0.001000000
    0.000000000    0.050000000    0.000000000
    0.000000000    0.050000000    0.001000000
    0.000000000    0.100000000   -0.001000000
    0.000000000    0.100000000    0.000000000
    0.000000000    0.100000000    0.001000000
    0.100000000    0.000000000   -0.001000000
    0.100000000    0.000000000    0.000000000
    0.100000000    0.000000000    0.001000000
    0.100000000    0.050000000   -0.001000000
    0.100000000    0.050000000    0.000000000
    0.100000000    0.050000000    0.001000000
    0.100000000    0.100000000   -0.001000000
    0.100000000    0.100000000    0.000000000
    0.100000000    0.100000000    0.001000000
   -0.100000000    0.000000000    0.001000000
   -0.100000000    0.000000000    0.002000000
   -0.100000000    0.000000000    0.003000000
   -0.100000000    0.050000000    0.001000000
   -0.100000000    0.050000000    0.002000000
   -0.100000000    0.050000000    0.003000000
   -0.100000000    0.100000000    0.001000000
   -0.100000000    0.100000000    0.002000000
   -0.100000000    0.100000000    0.003000000
    0.000000000    0.000000000    0.001000000
    0.000000000    0.000000000    0.002000000
    0.000000000    0.000000000    0.003000000
    0.000000000    0.050000000    0.001000000
    0.000000000    0.050000000    0.002000000
    0.000000000    0.050000000    0.003000000
    0.000000000    0.100000000    0.001000000
    0.000000000    0.100000000    0.002000000
    0.000000000    0.100000000    0.003000000
    0.100000000    0.000000000    0.001000000
    0.100000000    0.000000000    0.002000000
    0.100000000    0.000000000    0.003000000
    0.100000000    0.050000000    0.001000000
    0.100000000    0.050000000    0.002000000
    0.100000000    0.050000000    0.003000000
    0.100000000    0.100000000    0.001000000
    0.100000000    0.100000000    0.002000000
    0.100000000    0.100000000    0.003000000
   -0.100000000    0.100000000   -0.003000000
   -0.100000000    0.100000000   -0.002000000
   -0.100000000    0.100000000   -0.001000000
   -0.100000000    0.150000000   -0.003000000
   -0.100000000    0.150000000   -0.002000000
   -0.100000000    0.150000000   -0.001000000
   -0.100000000    0.200000000   -0.003000000
   -0.100000000    0.200000000   -0.002000000
   -0.100000000    0.200000000   -0.001000000
    0.000000000    0.100000000   -0.003000000
    0.000000000    0.100000000   -0.002000000
    0.000000000    0.100000000   -0.001000000
    0.000000000    0.150000000   -0.003000000
    0.000000000    0.150000000   -0.002000000
    0.000000000    0.150000000   -0.001000000
    0.000000000    0.200000000   -0.003000000
    0.000000000    0.200000000   -0.002000000
    0.000000000    0.200000000   -0.001000000
    0.100000000    0.100000000   -0.003000000
    0.100000000    0.100000000   -0.002000000
    0.100000000    0.100000000   -0.001000000
    0.100000000    0.150000000   -0.003000000
    0.100000000    0.150000000   -0.002000000
    0.100000000    0.150000000   -0.001000000
    0.100000000    0.200000000   -0.003000000
    0.100000000    0.200000000   -0.002000000
    0.100000000    0.200000000   -0.001000000
   -0.100000000    0.100000000   -0.001000000
   -0.100000000    0.100000000    0.000000000
   -0.100000000    0.100000000    0.001000000
   -0.100000000    0.150000000   -0.001000000
   -0.100000000    0.150000000    0.000000000
   -0.100000000    0.150000000    0.001000000
   -0.100000000    0.200000000   -0.001000000
   -0.100000000    0.200000000    0.000000000
   -0.100000000    0.200000000    0.001000000
    0.000000000    0.100000000   -0.001000000
    0.000000000    0.100000000    0.000000000
    0.000000000    0.100000000    0.001000000
    0.000000000    0.150000000   -0.001000000
    0.000000000    0.150000000    0.000000000
    0.000000000    0.150000000    0.001000000
    0.000000000    0.200000000   -0.001000000
    0.000000000    0.200000000    0.000000000
    0.000000000    0.200000000    0.001000000
    0.100000000    0.100000000   -0.001000000
    0.100000000    0.100000000    0.000000000
    0.100000000    0.100000000    0.001000000
    0.100000000    0.150000000   -0.001000000
    0.100000000    0.150000000    0.000000000
    0.100000000    0.150000000    0.001000000
    0.100000000    0.200000000   -0.001000000
    0.100000000    0.200000000    0.000000000
    0.100000000    0.200000000    0.001000000
   -0.100000000    0.100000000    0.001000000
   -0.100000000    0.100000000    0.002000000
   -0.100000000    0.100000000    0.003000000
   -0.100000000    0.150000000    0.001000000
   -0.100000000    0.150000000    0.002000000
   -0.100000000    0.150000000    0.003000000
   -0.100000000    0.200000000    0.001000000
   -0.100000000    0.200000000    0.002000000
   -0.100000000    0.200000000    0.003000000
    0.000000000    0.100000000    0.001000000
    0.000000000    0.100000000    0.002000000
    0.000000000    0.100000000    0.003000000
    0.000000000    0.150000000    0.001000000
    0.000000000    0.150000000    0.002000000
    0.000000000    0.150000000    0.003000000
    0.000000000    0.200000000    0.001000000
    0.000000000    0.200000000    0.002000000
    0.000000000    0.200000000    0.003000000
    0.100000000    0.100000000    0.001000000
    0.100000000    0.100000000    0.002000000
    0.100000000    0.100000000    0.003000000
    0.100000000    0.150000000    0.001000000
    0.100000000    0.150000000    0.002000000
    0.100000000    0.150000000    0.003000000
    0.100000000    0.200000000    0.001000000
    0.100000000    0.200000000    0.002000000
    0.100000000    0.200000000    0.003000000
   -0.100000000    0.200000000   -0.003000000
   -0.100000000    0.200000000   -0.002000000
   -0.100000000    0.200000000   -0.001000000
   -0.100000000    0.250000000   -0.003000000
   -0.100000000    0.250000000   -0.002000000
   -0.100000000    0.250000000   -0.001000000
   -0.100000000    0.300000000   -0.003000000
   -0.100000000    0.300000000   -0.002000000
   -0.100000000    0.300000000   -0.001000000
    0.000000000    0.200000000   -0.003000000
    0.000000000    0.200000000   -0.002000000
    0.000000000    0.200000000   -0.001000000
    0.000000000    0.250000000   -0.003000000
    0.000000000    0.250000000   -0.002000000
    0.000000000    0.250000000   -0.001000000
    0.000000000    0.300000000   -0.003000000
    0.000000000    0.300000000   -0.002000000
    0.000000000    0.300000000   -0.001000000
    0.100000000    0.200000000   -0.003000000
    0.100000000    0.200000000   -0.002000000
    0.100000000    0.200000000   -0.001000000
    0.100000000    0.250000000   -0.003000000
    0.100000000    0.250000000   -0.002000000
    0.100000000    0.250000000   -0.001000000
    0.100000000    0.300000000   -0.003000000
    0.100000000    0.300000000   -0.002000000
    0.100000000    0.300000000   -0.001000000
   -0.100000000    0.200000000   -0.001000000
   -0.100000000    0.200000000    0.000000000
   -0.100000000    0.200000000    0.001000000
   -0.100000000    0.250000000   -0.001000000
   -0.100000000    0.250000000    0.000000000
   -0.100000000    0.250000000    0.001000000
   -0.100000000    0.300000000   -0.001000000
   -0.100000000    0.300000000    0.000000000
   -0.100000000    0.300000000    0.001000000
    0.000000000    0.200000000   -0.001000000
    0.000000000    0.200000000    0.000000000
    0.000000000    0.200000000    0.001000000
    0.000000000    0.250000000   -0.001000000
    0.000000000    0.250000000    0.000000000
    0.000000000    0.250000000    0.001000000
    0.000000000    0.300000000   -0.001000000
    0.000000000    0.300000000    0.000000000
    0.000000000    0.300000000    0.001000000
    0.100000000    0.200000000   -0.001000000
    0.100000000    0.200000000    0.000000000
    0.100000000    0.200000000    0.001000000
[...]
POINT_DATA      810
VECTORS Displacements double
        -0.119412377E-17        -0.172343581E-15        -0.919023622E-16
        -0.208763650E-17        -0.279289113E-15        -0.784561461E-33
        -0.186249630E-17        -0.818115383E-16         0.000000000E+00
         0.596310636E-05         0.271087936E-03        -0.103326882E-04
         0.595486082E-05         0.271127368E-03        -0.686691576E-05
         0.593026557E-05         0.271096148E-03        -0.339880877E-05
         0.620106079E-05         0.540628097E-03        -0.103660039E-04
         0.619263669E-05         0.540700524E-03        -0.685595455E-05
         0.616722659E-05         0.541410241E-03        -0.334710416E-05
         0.160837649E-33        -0.172367251E-15        -0.919041499E-16
         0.122032600E-33        -0.279351279E-15         0.863046982E-32
        -0.615863144E-34        -0.818168718E-16         0.000000000E+00
        -0.322033721E-15         0.270799813E-03        -0.103304152E-04
        -0.233866023E-15         0.270836253E-03        -0.686456616E-05
        -0.145391444E-15         0.270798384E-03        -0.339711155E-05
        -0.116238072E-14         0.540435148E-03        -0.103669429E-04
        -0.855520335E-15         0.540508008E-03        -0.685622100E-05
        -0.548446688E-15         0.541201950E-03        -0.334697002E-05
         0.119412377E-17        -0.172343581E-15        -0.919023622E-16
         0.208763650E-17        -0.279289113E-15         0.000000000E+00
         0.186249630E-17        -0.818115383E-16         0.000000000E+00
        -0.596310636E-05         0.271087936E-03        -0.103326882E-04
        -0.595486082E-05         0.271127368E-03        -0.686691578E-05
        -0.593026557E-05         0.271096148E-03        -0.339880878E-05
        -0.620106079E-05         0.540628097E-03        -0.103660040E-04
        -0.619263669E-05         0.540700524E-03        -0.685595461E-05
        -0.616722659E-05         0.541410241E-03        -0.334710422E-05
        -0.186249630E-17        -0.818115383E-16         0.000000000E+00
        -0.732877345E-17        -0.936673825E-16         0.339780085E-32
        -0.186249630E-17        -0.818115383E-16         0.000000000E+00
         0.593026557E-05         0.271096148E-03        -0.339880877E-05
         0.587155853E-05         0.271359215E-03        -0.161661115E-14
         0.593026557E-05         0.271096148E-03         0.339880876E-05
         0.616722659E-05         0.541410241E-03        -0.334710416E-05
         0.610761594E-05         0.539402238E-03        -0.126893214E-13
         0.616722659E-05         0.541410241E-03         0.334710413E-05
        -0.615863144E-34        -0.818168718E-16         0.000000000E+00
        -0.187562857E-33        -0.936743738E-16         0.653429438E-32
        -0.142122264E-33        -0.818168718E-16         0.000000000E+00
        -0.145391444E-15         0.270798384E-03        -0.339711155E-05
        -0.547117208E-16         0.271060666E-03        -0.121098725E-13
         0.363937940E-16         0.270798384E-03         0.339711153E-05
        -0.548446688E-15         0.541201950E-03        -0.334697002E-05
        -0.239784754E-15         0.539187258E-03        -0.476739609E-13
         0.693005952E-16         0.541201950E-03         0.334696992E-05
         0.186249630E-17        -0.818115383E-16         0.000000000E+00
         0.732877345E-17        -0.936673825E-16        -0.418190874E-32
         0.186249630E-17        -0.818115383E-16         0.000000000E+00
        -0.593026557E-05         0.271096148E-03        -0.339880878E-05
        -0.587155853E-05         0.271359215E-03        -0.191994371E-13
        -0.593026557E-05         0.271096148E-03         0.339880875E-05
        -0.616722659E-05         0.541410241E-03        -0.334710422E-05
        -0.610761594E-05         0.539402238E-03        -0.740281807E-13
        -0.616722659E-05         0.541410241E-03         0.334710407E-05
        -0.186249630E-17        -0.818115383E-16         0.000000000E+00
        -0.208763650E-17        -0.279289113E-15        -0.496888925E-32
        -0.119412377E-17        -0.172343581E-15         0.919023622E-16
         0.593026557E-05         0.271096148E-03         0.339880876E-05
         0.595486082E-05         0.271127368E-03         0.686691576E-05
         0.596310636E-05         0.271087936E-03         0.103326882E-04
         0.616722659E-05         0.541410241E-03         0.334710413E-05
         0.619263669E-05         0.540700524E-03         0.685595452E-05
         0.620106079E-05         0.540628097E-03         0.103660039E-04
        -0.142122264E-33        -0.818168718E-16         0.000000000E+00
         0.504047696E-34        -0.279351279E-15         0.107227049E-31
        -0.121386905E-33        -0.172367251E-15         0.919041499E-16
         0.363937940E-16         0.270798384E-03         0.339711153E-05
         0.125103506E-15         0.270836253E-03         0.686456614E-05
         0.213435491E-15         0.270799813E-03         0.103304152E-04
         0.693005952E-16         0.541201950E-03         0.334696992E-05
         0.376609623E-15         0.540508008E-03         0.685622090E-05
         0.683634277E-15         0.540435148E-03         0.103669428E-04
         0.186249630E-17        -0.818115383E-16         0.000000000E+00
         0.208763650E-17        -0.279289113E-15        -0.418432779E-32
         0.119412377E-17        -0.172343581E-15         0.919023622E-16
        -0.593026557E-05         0.271096148E-03         0.339880875E-05
        -0.595486082E-05         0.271127368E-03         0.686691574E-05
        -0.596310636E-05         0.271087936E-03         0.103326881E-04
        -0.616722659E-05         0.541410241E-03         0.334710407E-05
        -0.619263669E-05         0.540700524E-03         0.685595446E-05
        -0.620106079E-05         0.540628097E-03         0.103660038E-04
         0.620106079E-05         0.540628097E-03        -0.103660039E-04
         0.619263669E-05         0.540700524E-03        -0.685595455E-05
         0.616722659E-05         0.541410241E-03        -0.334710416E-05
         0.616656839E-05         0.810434264E-03        -0.918547446E-05
         0.615816518E-05         0.810393744E-03        -0.609946815E-05
         0.613312622E-05         0.810424623E-03        -0.301259995E-05
         0.616104799E-05         0.108006742E-02        -0.926408398E-05
         0.615260244E-05         0.108030478E-02        -0.618300584E-05
         0.612753984E-05         0.107933564E-02        -0.310305367E-05
        -0.116238072E-14         0.540435148E-03        -0.103669429E-04
        -0.855520335E-15         0.540508008E-03        -0.685622100E-05
        -0.548446688E-15         0.541201950E-03        -0.334697002E-05
        -0.239905367E-14         0.810309958E-03        -0.918128084E-05
        -0.178390700E-14         0.810269752E-03        -0.609597549E-05
        -0.116866105E-14         0.810302334E-03        -0.301040811E-05
        -0.395188166E-14         0.107998899E-02        -0.926006952E-05
        -0.296680102E-14         0.108022400E-02        -0.617950178E-05
        -0.198166272E-14         0.107926042E-02        -0.310076228E-05
        -0.620106079E-05         0.540628097E-03        -0.103660040E-04
        -0.619263669E-05         0.540700524E-03        -0.685595461E-05
        -0.616722659E-05         0.541410241E-03        -0.334710422E-05
        -0.616656839E-05         0.810434264E-03        -0.918547458E-05
        -0.615816519E-05         0.810393744E-03        -0.609946827E-05
        -0.613312623E-05         0.810424623E-03        -0.301260007E-05
        -0.616104799E-05         0.108006742E-02        -0.926408418E-05
        -0.615260245E-05         0.108030478E-02        -0.618300603E-05
        -0.612753985E-05         0.107933564E-02        -0.310305387E-05
         0.616722659E-05         0.541410241E-03        -0.334710416E-05
         0.610761594E-05         0.539402238E-03        -0.126893214E-13
         0.616722659E-05         0.541410241E-03         0.334710413E-05
         0.613312622E-05         0.810424623E-03        -0.301259995E-05
         0.607351560E-05         0.810133653E-03        -0.381290426E-13
         0.613312622E-05         0.810424623E-03         0.301259987E-05
         0.612753984E-05         0.107933564E-02        -0.310305367E-05
         0.606661010E-05         0.108366917E-02        -0.808613061E-13
         0.612753984E-05         0.107933564E-02         0.310305351E-05
        -0.548446688E-15         0.541201950E-03        -0.334697002E-05
        -0.239784754E-15         0.539187258E-03        -0.476739609E-13
         0.693005952E-16         0.541201950E-03         0.334696992E-05
        -0.116866105E-14         0.810302334E-03        -0.301040811E-05
        -0.552605223E-15         0.810011665E-03        -0.106192245E-12
         0.638561690E-16         0.810302334E-03         0.301040790E-05
        -0.198166272E-14         0.107926042E-02        -0.310076228E-05
        -0.995999349E-15         0.108359908E-02        -0.187266321E-12
        -0.994515273E-17         0.107926042E-02         0.310076190E-05
        -0.616722659E-05         0.541410241E-03        -0.334710422E-05
        -0.610761594E-05         0.539402238E-03        -0.740281807E-13
        -0.616722659E-05         0.541410241E-03         0.334710407E-05
        -0.613312623E-05         0.810424623E-03        -0.301260007E-05
        -0.607351560E-05         0.810133653E-03        -0.161147416E-12
        -0.613312622E-05         0.810424623E-03         0.301259975E-05
        -0.612753985E-05         0.107933564E-02        -0.310305387E-05
        -0.606661011E-05         0.108366917E-02        -0.277874945E-12
        -0.612753984E-05         0.107933564E-02         0.310305331E-05
         0.616722659E-05         0.541410241E-03         0.334710413E-05
         0.619263669E-05         0.540700524E-03         0.685595452E-05
         0.620106079E-05         0.540628097E-03         0.103660039E-04
         0.613312622E-05         0.810424623E-03         0.301259987E-05
         0.615816519E-05         0.810393744E-03         0.609946807E-05
         0.616656839E-05         0.810434264E-03         0.918547438E-05
         0.612753984E-05         0.107933564E-02         0.310305351E-05
         0.615260244E-05         0.108030478E-02         0.618300567E-05
         0.616104799E-05         0.108006742E-02         0.926408382E-05
         0.693005952E-16         0.541201950E-03         0.334696992E-05
         0.376609623E-15         0.540508008E-03         0.685622090E-05
         0.683634277E-15         0.540435148E-03         0.103669428E-04
         0.638561690E-16         0.810302334E-03         0.301040790E-05
         0.679325457E-15         0.810269752E-03         0.609597527E-05
         0.129462471E-14         0.810309958E-03         0.918128063E-05
        -0.994515273E-17         0.107926042E-02         0.310076190E-05
         0.975411882E-15         0.108022400E-02         0.617950140E-05
         0.196064588E-14         0.107998899E-02         0.926006915E-05
        -0.616722659E-05         0.541410241E-03         0.334710407E-05
        -0.619263669E-05         0.540700524E-03         0.685595446E-05
        -0.620106079E-05         0.540628097E-03         0.103660038E-04
        -0.613312622E-05         0.810424623E-03         0.301259975E-05
        -0.615816518E-05         0.810393744E-03         0.609946795E-05
        -0.616656839E-05         0.810434264E-03         0.918547426E-05
        -0.612753984E-05         0.107933564E-02         0.310305331E-05
        -0.615260244E-05         0.108030478E-02         0.618300548E-05
        -0.616104799E-05         0.108006742E-02         0.926408363E-05
         0.616104799E-05         0.108006742E-02        -0.926408398E-05
         0.615260244E-05         0.108030478E-02        -0.618300584E-05
         0.612753984E-05         0.107933564E-02        -0.310305367E-05
         0.615987617E-05         0.134997590E-02        -0.932650581E-05
         0.615149863E-05         0.134999710E-02        -0.619357508E-05
         0.612646479E-05         0.134994975E-02        -0.306095340E-05
         0.615923403E-05         0.162005106E-02        -0.922974104E-05
         0.615088276E-05         0.161963988E-02        -0.609724768E-05
         0.612588350E-05         0.162097198E-02        -0.295917417E-05
        -0.395188166E-14         0.107998899E-02        -0.926006952E-05
        -0.296680102E-14         0.108022400E-02        -0.617950178E-05
        -0.198166272E-14         0.107926042E-02        -0.310076228E-05
        -0.575798648E-14         0.134992392E-02        -0.932383401E-05
        -0.436173589E-14         0.134994531E-02        -0.619114705E-05
        -0.296546174E-14         0.134989776E-02        -0.305932029E-05
        -0.775423633E-14         0.162001444E-02        -0.922738161E-05
        -0.592261714E-14         0.161960496E-02        -0.609507502E-05
        -0.409100078E-14         0.162093554E-02        -0.295771861E-05
        -0.616104799E-05         0.108006742E-02        -0.926408418E-05
        -0.615260245E-05         0.108030478E-02        -0.618300603E-05
        -0.612753985E-05         0.107933564E-02        -0.310305387E-05
        -0.615987618E-05         0.134997590E-02        -0.932650609E-05
        -0.615149864E-05         0.134999710E-02        -0.619357536E-05
        -0.612646480E-05         0.134994975E-02        -0.306095368E-05
        -0.615923404E-05         0.162005106E-02        -0.922974141E-05
        -0.615088277E-05         0.161963988E-02        -0.609724805E-05
        -0.612588351E-05         0.162097198E-02        -0.295917454E-05
         0.612753984E-05         0.107933564E-02        -0.310305367E-05
         0.606661010E-05         0.108366917E-02        -0.808613061E-13
         0.612753984E-05         0.107933564E-02         0.310305351E-05
         0.612646479E-05         0.134994975E-02        -0.306095340E-05
         0.606677822E-05         0.135026396E-02        -0.142438166E-12
         0.612646480E-05         0.134994975E-02         0.306095311E-05
         0.612588350E-05         0.162097198E-02        -0.295917417E-05
         0.606769694E-05         0.161411543E-02        -0.224121735E-12
         0.612588350E-05         0.162097198E-02         0.295917372E-05
        -0.198166272E-14         0.107926042E-02        -0.310076228E-05
        -0.995999349E-15         0.108359908E-02        -0.187266321E-12
        -0.994515273E-17         0.107926042E-02         0.310076190E-05
        -0.296546174E-14         0.134989776E-02        -0.305932029E-05
        -0.156890112E-14         0.135021186E-02        -0.290572781E-12
        -0.171981016E-15         0.134989776E-02         0.305931970E-05
        -0.409100078E-14         0.162093554E-02        -0.295771861E-05
        -0.225926704E-14         0.161407507E-02        -0.415955208E-12
        -0.427178819E-15         0.162093554E-02         0.295771778E-05
        -0.612753985E-05         0.107933564E-02        -0.310305387E-05
        -0.606661011E-05         0.108366917E-02        -0.277874945E-12
        -0.612753984E-05         0.107933564E-02         0.310305331E-05
        -0.612646480E-05         0.134994975E-02        -0.306095368E-05
        -0.606677822E-05         0.135026396E-02        -0.421691482E-12
        -0.612646480E-05         0.134994975E-02         0.306095283E-05
        -0.612588351E-05         0.162097198E-02        -0.295917454E-05
        -0.606769694E-05         0.161411543E-02        -0.590452411E-12
        -0.612588350E-05         0.162097198E-02         0.295917336E-05
         0.612753984E-05         0.107933564E-02         0.310305351E-05
         0.615260244E-05         0.108030478E-02         0.618300567E-05
         0.616104799E-05         0.108006742E-02         0.926408382E-05
         0.612646480E-05         0.134994975E-02         0.306095311E-05
         0.615149864E-05         0.134999710E-02         0.619357479E-05
         0.615987618E-05         0.134997590E-02         0.932650552E-05
         0.612588350E-05         0.162097198E-02         0.295917372E-05
         0.615088277E-05         0.161963988E-02         0.609724723E-05
         0.615923404E-05         0.162005106E-02         0.922974059E-05
        -0.994515273E-17         0.107926042E-02         0.310076190E-05
         0.975411882E-15         0.108022400E-02         0.617950140E-05
         0.196064588E-14         0.107998899E-02         0.926006915E-05
        -0.171981016E-15         0.134989776E-02         0.305931970E-05
         0.122449316E-14         0.134994531E-02         0.619114646E-05
         0.262088073E-14         0.134992392E-02         0.932383343E-05
        -0.427178819E-15         0.162093554E-02         0.295771778E-05
         0.140463209E-14         0.161960496E-02         0.609507418E-05
         0.323638106E-14         0.162001444E-02         0.922738077E-05
        -0.612753984E-05         0.107933564E-02         0.310305331E-05
        -0.615260244E-05         0.108030478E-02         0.618300548E-05
        -0.616104799E-05         0.108006742E-02         0.926408363E-05
        -0.612646480E-05         0.134994975E-02         0.306095283E-05
        -0.615149863E-05         0.134999710E-02         0.619357451E-05
        -0.615987617E-05         0.134997590E-02         0.932650525E-05
        -0.612588350E-05         0.162097198E-02         0.295917336E-05
        -0.615088277E-05         0.161963988E-02         0.609724687E-05
        -0.615923403E-05         0.162005106E-02         0.922974023E-05
         0.615923403E-05         0.162005106E-02        -0.922974104E-05
         0.615088276E-05         0.161963988E-02        -0.609724768E-05
         0.612588350E-05         0.162097198E-02        -0.295917417E-05
         0.615840406E-05         0.188959903E-02        -0.930666905E-05
         0.615002637E-05         0.188959451E-02        -0.617963563E-05
         0.612500821E-05         0.188964261E-02        -0.305191802E-05
         0.615483521E-05         0.215911460E-02        -0.941650448E-05
         0.614646010E-05         0.215955753E-02        -0.628919834E-05
         0.612137648E-05         0.215785468E-02        -0.316923762E-05
        -0.775423633E-14         0.162001444E-02        -0.922738161E-05
        -0.592261714E-14         0.161960496E-02        -0.609507502E-05
        -0.409100078E-14         0.162093554E-02        -0.295771861E-05
        -0.989691981E-14         0.188957216E-02        -0.930425012E-05
        -0.761777839E-14         0.188956757E-02        -0.617735635E-05
        -0.533865807E-14         0.188961592E-02        -0.305034938E-05
        -0.121580401E-13         0.215909105E-02        -0.941415796E-05
        -0.942794869E-14         0.215953321E-02        -0.628694389E-05
        -0.669788262E-14         0.215783077E-02        -0.316765080E-05
        -0.615923404E-05         0.162005106E-02        -0.922974141E-05
        -0.615088277E-05         0.161963988E-02        -0.609724805E-05
        -0.612588351E-05         0.162097198E-02        -0.295917454E-05
        -0.615840408E-05         0.188959903E-02        -0.930666951E-05
        -0.615002639E-05         0.188959451E-02        -0.617963608E-05
        -0.612500822E-05         0.188964261E-02        -0.305191847E-05
        -0.615483524E-05         0.215911460E-02        -0.941650502E-05
        -0.614646011E-05         0.215955753E-02        -0.628919889E-05