# vtk DataFile Version 2.0
  Generated by MUL2 - Zappino
ASCII
DATASET UNSTRUCTURED_GRID
POINTS      810 double
   -0.100000000    0.000000000   -0.003000000
   -0.100000000    0.000000000   -0.002000000
   -0.100000000    0.000000000   -0.001000000
   -0.100000000    0.050000000   -0.003000000
   -0.100000000    0.050000000   -0.002000000
   -0.100000000    0.050000000   -0.001000000
   -0.100000000    0.100000000   -0.003000000
   -0.100000000    0.100000000   -0.002000000
   -0.100000000    0.100000000   -0.001000000
    0.000000000    0.000000000   -0.003000000
    0.000000000    0.000000000   -0.002000000
    0.000000000    0.000000000   -0.001000000
    0.000000000    0.050000000   -0.003000000
    0.000000000    0.050000000   -0.002000000
    0.000000000    0.050000000   -0.001000000
    0.000000000    0.100000000   -0.003000000
    0.000000000    0.100000000   -0.002000000
    0.000000000    0.100000000   -0.001000000
    0.100000000    0.000000000   -0.003000000
    0.100000000    0.000000000   -0.002000000
    0.100000000    0.000000000   -0.001000000
    0.100000000    0.050000000   -0.003000000
    0.100000000    0.050000000   -0.002000000
    0.100000000    0.050000000   -0.001000000
    0.100000000    0.100000000   -0.003000000
    0.100000000    0.100000000   -0.002000000
    0.100000000    0.100000000   -0.001000000
   -0.100000000    0.000000000   -0.001000000
   -0.100000000    0.000000000    0.000000000
   -0.100000000    0.000000000    0.001000000
   -0.100000000    0.050000000   -0.001000000
   -0.100000000    0.050000000    0.000000000
   -0.100000000    0.050000000    0.001000000
   -0.100000000    0.100000000   -0.001000000
   -0.100000000    0.100000000    0.000000000
   -0.100000000    0.100000000    0.001000000
    0.000000000    0.000000000   -0.001000000
    0.000000000    0.000000000    0.000000000
    0.000000000    0.000000000    0.001000000
    0.000000000    0.050000000   -0.001000000
    0.000000000    0.050000000    0.000000000
    0.000000000    0.050000000    0.001000000
    0.000000000    0.100000000   -0.001000000
    0.000000000    0.100000000    0.000000000
    0.000000000    0.100000000    0.001000000
    0.100000000    0.000000000   -0.001000000
    0.100000000    0.000000000    0.000000000
    0.100000000    0.000000000    0.001000000
    0.100000000    0.050000000   -0.001000000
    0.100000000    0.050000000    0.000000000
    0.100000000    0.050000000    0.001000000
    0.100000000    0.100000000   -0.001000000
    0.100000000    0.100000000    0.000000000
    0.100000000    0.100000000    0.001000000
   -0.100000000    0.000000000    0.001000000
   -0.100000000    0.000000000    0.002000000
   -0.100000000    0.000000000    0.003000000
   -0.100000000    0.050000000    0.001000000
   -0.100000000    0.050000000    0.002000000
   -0.100000000    0.050000000    0.003000000
   -0.100000000    0.100000000    0.001000000
   -0.100000000    0.100000000    0.002000000
   -0.100000000    0.100000000    0.003000000
    0.000000000    0.000000000    0.001000000
    0.000000000    0.000000000    0.002000000
    0.000000000    0.000000000    0.003000000
    0.000000000    0.050000000    0.001000000
    0.000000000    0.050000000    0.002000000
    0.000000000    0.050000000    0.003000000
    0.000000000    0.100000000    0.001000000
    0.000000000    0.100000000    0.002000000
    0.000000000    0.100000000    0.003000000
    0.100000000    0.000000000    0.001000000
    0.100000000    0.000000000    0.002000000
    0.100000000    0.000000000    0.003000000
    0.100000000    0.050000000    0.001000000
    0.100000000    0.050000000    0.002000000
    0.100000000    0.050000000    0.003000000
    0.100000000    0.100000000    0.001000000
    0.100000000    0.100000000    0.002000000
    0.100000000    0.100000000    0.003000000
   -0.100000000    0.100000000   -0.003000000
   -0.100000000    0.100000000   -0.002000000
   -0.100000000    0.100000000   -0.001000000
   -0.100000000    0.150000000   -0.003000000
   -0.100000000    0.150000000   -0.002000000
   -0.100000000    0.150000000   -0.001000000
   -0.100000000    0.200000000   -0.003000000
   -0.100000000    0.200000000   -0.002000000
   -0.100000000    0.200000000   -0.001000000
    0.000000000    0.100000000   -0.003000000
    0.000000000    0.100000000   -0.002000000
    0.000000000    0.100000000   -0.001000000
    0.000000000    0.150000000   -0.003000000
    0.000000000    0.150000000   -0.002000000
    0.000000000    0.150000000   -0.001000000
    0.000000000    0.200000000   -0.003000000
    0.000000000    0.200000000   -0.002000000
    0.000000000    0.200000000   -0.001000000
    0.100000000    0.100000000   -0.003000000
    0.100000000    0.100000000   -0.002000000
    0.100000000    0.100000000   -0.001000000
    0.100000000    0.150000000   -0.003000000
    0.100000000    0.150000000   -0.002000000
    0.100000000    0.150000000   -0.001000000
    0.100000000    0.200000000   -0.003000000
    0.100000000    0.200000000   -0.002000000
    0.100000000    0.200000000   -0.001000000
   -0.100000000    0.100000000   -0.001000000
   -0.100000000    0.100000000    0.000000000
   -0.100000000    0.100000000    0.001000000
   -0.100000000    0.150000000   -0.001000000
   -0.100000000    0.150000000    0.000000000
   -0.100000000    0.150000000    0.001000000
   -0.100000000    0.200000000   -0.001000000
   -0.100000000    0.200000000    0.000000000
   -0.100000000    0.200000000    0.001000000
    0.000000000    0.100000000   -0.001000000
    0.000000000    0.100000000    0.000000000
    0.000000000    0.100000000    0.001000000
    0.000000000    0.150000000   -0.001000000
    0.000000000    0.150000000    0.000000000
    0.000000000    0.150000000    0.001000000
    0.000000000    0.200000000   -0.001000000
    0.000000000    0.200000000    0.000000000
    0.000000000    0.200000000    0.001000000
    0.100000000    0.100000000   -0.001000000
    0.100000000    0.100000000    0.000000000
    0.100000000    0.100000000    0.001000000
    0.100000000    0.150000000   -0.001000000
    0.100000000    0.150000000    0.000000000
    0.100000000    0.150000000    0.001000000
    0.100000000    0.200000000   -0.001000000
    0.100000000    0.200000000    0.000000000
    0.100000000    0.200000000    0.001000000
   -0.100000000    0.100000000    0.001000000
   -0.100000000    0.100000000    0.002000000
   -0.100000000    0.100000000    0.003000000
   -0.100000000    0.150000000    0.001000000
   -0.100000000    0.150000000    0.002000000
   -0.100000000    0.150000000    0.003000000
   -0.100000000    0.200000000    0.001000000
   -0.100000000    0.200000000    0.002000000
   -0.100000000    0.200000000    0.003000000
    0.000000000    0.100000000    0.001000000
    0.000000000    0.100000000    0.002000000
    0.000000000    0.100000000    0.003000000
    0.000000000    0.150000000    0.001000000
    0.000000000    0.150000000    0.002000000
    0.000000000    0.150000000    0.003000000
    0.000000000    0.200000000    0.001000000
    0.000000000    0.200000000    0.002000000
    0.000000000    0.200000000    0.003000000
    0.100000000    0.100000000    0.001000000
    0.100000000    0.100000000    0.002000000
    0.100000000    0.100000000    0.003000000
    0.100000000    0.150000000    0.001000000
    0.100000000    0.150000000    0.002000000
    0.100000000    0.150000000    0.003000000
    0.100000000    0.200000000    0.001000000
    0.100000000    0.200000000    0.002000000
    0.100000000    0.200000000    0.003000000
   -0.100000000    0.200000000   -0.003000000
   -0.100000000    0.200000000   -0.002000000
   -0.100000000    0.200000000   -0.001000000
   -0.100000000    0.250000000   -0.003000000
   -0.100000000    0.250000000   -0.002000000
   -0.100000000    0.250000000   -0.001000000
   -0.100000000    0.300000000   -0.003000000
   -0.100000000    0.300000000   -0.002000000
   -0.100000000    0.300000000   -0.001000000
    0.000000000    0.200000000   -0.003000000
    0.000000000    0.200000000   -0.002000000
    0.000000000    0.200000000   -0.001000000
    0.000000000    0.250000000   -0.003000000
    0.000000000    0.250000000   -0.002000000
    0.000000000    0.250000000   -0.001000000
    0.000000000    0.300000000   -0.003000000
    0.000000000    0.300000000   -0.002000000
    0.000000000    0.300000000   -0.001000000
    0.100000000    0.200000000   -0.003000000
    0.100000000    0.200000000   -0.002000000
    0.100000000    0.200000000   -0.001000000
    0.100000000    0.250000000   -0.003000000
    0.100000000    0.250000000   -0.002000000
    0.100000000    0.250000000   -0.001000000
    0.100000000    0.300000000   -0.003000000
    0.100000000    0.300000000   -0.002000000
    0.100000000    0.300000000   -0.001000000
   -0.100000000    0.200000000   -0.001000000
   -0.100000000    0.200000000    0.000000000
   -0.100000000    0.200000000    0.001000000
   -0.100000000    0.250000000   -0.001000000
   -0.100000000    0.250000000    0.000000000
   -0.100000000    0.250000000    0.001000000
   -0.100000000    0.300000000   -0.001000000
   -0.100000000    0.300000000    0.000000000
   -0.100000000    0.300000000    0.001000000
    0.000000000    0.200000000   -0.001000000
    0.000000000    0.200000000    0.000000000
    0.000000000    0.200000000    0.001000000
    0.000000000    0.250000000   -0.001000000
    0.000000000    0.250000000    0.000000000
    0.000000000    0.250000000    0.001000000
    0.000000000    0.300000000   -0.001000000
    0.000000000    0.300000000    0.000000000
    0.000000000    0.300000000    0.001000000
    0.100000000    0.200000000   -0.001000000
    0.100000000    0.200000000    0.000000000
    0.100000000    0.200000000    0.001000000
[...]
POINT_DATA      810
VECTORS Displacements double
         0.000000000E+00         0.000000000E+00         0.000000000E+00
         0.000000000E+00         0.000000000E+00         0.000000000E+00
         0.000000000E+00         0.000000000E+00         0.000000000E+00
         0.420133465E-05         0.570558391E-04         0.467360711E-03
         0.283182127E-05         0.380506143E-04         0.466952794E-03
         0.144942665E-05         0.190017746E-04         0.466708003E-03
         0.973966177E-05         0.114987783E-03         0.190298387E-02
         0.650807045E-05         0.766692622E-04         0.190259696E-02
         0.326733372E-05         0.382981147E-04         0.190236527E-02
         0.000000000E+00         0.000000000E+00         0.000000000E+00
         0.000000000E+00         0.000000000E+00         0.000000000E+00
         0.000000000E+00         0.000000000E+00         0.000000000E+00
         0.365557242E-13         0.623094258E-04         0.535406613E-03
         0.245031474E-13         0.414964738E-04         0.534982331E-03
         0.124077364E-13         0.208295742E-04         0.534727907E-03
         0.120598961E-12         0.119804784E-03         0.206425577E-02
         0.804734653E-13         0.797936741E-04         0.206387001E-02
         0.403237513E-13         0.400105474E-04         0.206363843E-02
         0.000000000E+00         0.000000000E+00         0.000000000E+00
         0.000000000E+00         0.000000000E+00         0.000000000E+00
         0.000000000E+00         0.000000000E+00         0.000000000E+00
        -0.420133457E-05         0.570558393E-04         0.467360713E-03
        -0.283182122E-05         0.380506144E-04         0.466952796E-03
        -0.144942662E-05         0.190017747E-04         0.466708005E-03
        -0.973966153E-05         0.114987783E-03         0.190298388E-02
        -0.650807029E-05         0.766692625E-04         0.190259696E-02
        -0.326733364E-05         0.382981148E-04         0.190236528E-02
         0.000000000E+00         0.000000000E+00         0.000000000E+00
         0.000000000E+00         0.000000000E+00         0.000000000E+00
         0.000000000E+00         0.000000000E+00         0.000000000E+00
         0.144942665E-05         0.190017746E-04         0.466708003E-03
         0.826091515E-17        -0.168470747E-15         0.466623222E-03
        -0.144942665E-05        -0.190017746E-04         0.466708003E-03
         0.326733372E-05         0.382981147E-04         0.190236527E-02
        -0.601176251E-17        -0.344180952E-15         0.190228532E-02
        -0.326733372E-05        -0.382981147E-04         0.190236527E-02
         0.000000000E+00         0.000000000E+00         0.000000000E+00
         0.000000000E+00         0.000000000E+00         0.000000000E+00
         0.000000000E+00         0.000000000E+00         0.000000000E+00
         0.124077364E-13         0.208295742E-04         0.534727907E-03
         0.246740989E-16        -0.109010869E-15         0.534640180E-03
        -0.123582664E-13        -0.208295742E-04         0.534727907E-03
         0.403237513E-13         0.400105474E-04         0.206363843E-02
         0.100949564E-16        -0.211506618E-15         0.206355775E-02
        -0.403035102E-13        -0.400105474E-04         0.206363843E-02
         0.000000000E+00         0.000000000E+00         0.000000000E+00
         0.000000000E+00         0.000000000E+00         0.000000000E+00
         0.000000000E+00         0.000000000E+00         0.000000000E+00
        -0.144942662E-05         0.190017747E-04         0.466708005E-03
         0.331767646E-16        -0.232960445E-16         0.466623225E-03
         0.144942662E-05        -0.190017747E-04         0.466708005E-03
        -0.326733364E-05         0.382981148E-04         0.190236528E-02
         0.240326844E-16        -0.448705328E-16         0.190228533E-02
         0.326733364E-05        -0.382981148E-04         0.190236528E-02
         0.000000000E+00         0.000000000E+00         0.000000000E+00
         0.000000000E+00         0.000000000E+00         0.000000000E+00
         0.000000000E+00         0.000000000E+00         0.000000000E+00
        -0.144942665E-05        -0.190017746E-04         0.466708003E-03
        -0.283182127E-05        -0.380506143E-04         0.466952794E-03
        -0.420133465E-05        -0.570558391E-04         0.467360711E-03
        -0.326733372E-05        -0.382981147E-04         0.190236527E-02
        -0.650807045E-05        -0.766692622E-04         0.190259696E-02
        -0.973966177E-05        -0.114987783E-03         0.190298387E-02
         0.000000000E+00         0.000000000E+00         0.000000000E+00
         0.000000000E+00         0.000000000E+00         0.000000000E+00
         0.000000000E+00         0.000000000E+00         0.000000000E+00
        -0.123582664E-13        -0.208295742E-04         0.534727907E-03
        -0.244536118E-13        -0.414964738E-04         0.534982331E-03
        -0.365061449E-13        -0.623094258E-04         0.535406613E-03
        -0.403035102E-13        -0.400105474E-04         0.206363843E-02
        -0.804531005E-13        -0.797936741E-04         0.206387001E-02
        -0.120578471E-12        -0.119804784E-03         0.206425577E-02
         0.000000000E+00         0.000000000E+00         0.000000000E+00
         0.000000000E+00         0.000000000E+00         0.000000000E+00
         0.000000000E+00         0.000000000E+00         0.000000000E+00
         0.144942662E-05        -0.190017747E-04         0.466708005E-03
         0.283182122E-05        -0.380506144E-04         0.466952796E-03
         0.420133457E-05        -0.570558393E-04         0.467360713E-03
         0.326733364E-05        -0.382981148E-04         0.190236528E-02
         0.650807029E-05        -0.766692625E-04         0.190259696E-02
         0.973966153E-05        -0.114987783E-03         0.190298388E-02
         0.973966177E-05         0.114987783E-03         0.190298387E-02
         0.650807045E-05         0.766692622E-04         0.190259696E-02
         0.326733372E-05         0.382981147E-04         0.190236527E-02
         0.136635380E-04         0.170789352E-03         0.429118913E-02
         0.910822434E-05         0.113838658E-03         0.429088393E-02
         0.454805891E-05         0.569611160E-04         0.429070082E-02
         0.156998027E-04         0.223397903E-03         0.758435783E-02
         0.104606019E-04         0.148894276E-03         0.758408276E-02
         0.521773789E-05         0.745260267E-04         0.758391744E-02
         0.120598961E-12         0.119804784E-03         0.206425577E-02
         0.804734653E-13         0.797936741E-04         0.206387001E-02
         0.403237513E-13         0.400105474E-04         0.206363843E-02
         0.227895622E-12         0.173717469E-03         0.451879345E-02
         0.151917967E-12         0.115789373E-03         0.451850168E-02
         0.759396439E-13         0.579382908E-04         0.451832661E-02
         0.337112419E-12         0.224597763E-03         0.784619690E-02
         0.224656888E-12         0.149735426E-03         0.784593199E-02
         0.112215082E-12         0.748774415E-04         0.784577305E-02
        -0.973966153E-05         0.114987783E-03         0.190298388E-02
        -0.650807029E-05         0.766692625E-04         0.190259696E-02
        -0.326733364E-05         0.382981148E-04         0.190236528E-02
        -0.136635376E-04         0.170789352E-03         0.429118915E-02
        -0.910822404E-05         0.113838658E-03         0.429088394E-02
        -0.454805876E-05         0.569611161E-04         0.429070084E-02
        -0.156998020E-04         0.223397904E-03         0.758435785E-02
        -0.104606014E-04         0.148894276E-03         0.758408278E-02
        -0.521773767E-05         0.745260268E-04         0.758391746E-02
         0.326733372E-05         0.382981147E-04         0.190236527E-02
        -0.601176251E-17        -0.344180952E-15         0.190228532E-02
        -0.326733372E-05        -0.382981147E-04         0.190236527E-02
         0.454805891E-05         0.569611160E-04         0.429070082E-02
        -0.620030461E-16        -0.519308485E-15         0.429063705E-02
        -0.454805891E-05        -0.569611160E-04         0.429070082E-02
         0.521773789E-05         0.745260267E-04         0.758391744E-02
        -0.151192084E-15        -0.693882021E-15         0.758385943E-02
        -0.521773789E-05        -0.745260267E-04         0.758391744E-02
         0.403237513E-13         0.400105474E-04         0.206363843E-02
         0.100949564E-16        -0.211506618E-15         0.206355775E-02
        -0.403035102E-13        -0.400105474E-04         0.206363843E-02
         0.759396439E-13         0.579382908E-04         0.451832661E-02
        -0.428812112E-16        -0.322724653E-15         0.451826564E-02
        -0.760251846E-13        -0.579382908E-04         0.451832661E-02
         0.112215082E-12         0.748774415E-04         0.784577305E-02
        -0.133356654E-15        -0.430249190E-15         0.784571782E-02
        -0.112481696E-12        -0.748774415E-04         0.784577305E-02
        -0.326733364E-05         0.382981148E-04         0.190236528E-02
         0.240326844E-16        -0.448705328E-16         0.190228533E-02
         0.326733364E-05        -0.382981148E-04         0.190236528E-02
        -0.454805876E-05         0.569611161E-04         0.429070084E-02
        -0.359421651E-16        -0.607515223E-16         0.429063707E-02
         0.454805876E-05        -0.569611161E-04         0.429070084E-02
        -0.521773767E-05         0.745260268E-04         0.758391746E-02
        -0.136474926E-15        -0.778224769E-16         0.758385946E-02
         0.521773767E-05        -0.745260268E-04         0.758391746E-02
        -0.326733372E-05        -0.382981147E-04         0.190236527E-02
        -0.650807045E-05        -0.766692622E-04         0.190259696E-02
        -0.973966177E-05        -0.114987783E-03         0.190298387E-02
        -0.454805891E-05        -0.569611160E-04         0.429070082E-02
        -0.910822434E-05        -0.113838658E-03         0.429088393E-02
        -0.136635380E-04        -0.170789352E-03         0.429118913E-02
        -0.521773789E-05        -0.745260267E-04         0.758391744E-02
        -0.104606019E-04        -0.148894276E-03         0.758408276E-02
        -0.156998027E-04        -0.223397903E-03         0.758435783E-02
        -0.403035102E-13        -0.400105474E-04         0.206363843E-02
        -0.804531005E-13        -0.797936741E-04         0.206387001E-02
        -0.120578471E-12        -0.119804784E-03         0.206425577E-02
        -0.760251846E-13        -0.579382908E-04         0.451832661E-02
        -0.152003400E-12        -0.115789373E-03         0.451850168E-02
        -0.227980989E-12        -0.173717469E-03         0.451879345E-02
        -0.112481696E-12        -0.748774415E-04         0.784577305E-02
        -0.224923580E-12        -0.149735426E-03         0.784593199E-02
        -0.337379315E-12        -0.224597763E-03         0.784619690E-02
         0.326733364E-05        -0.382981148E-04         0.190236528E-02
         0.650807029E-05        -0.766692625E-04         0.190259696E-02
         0.973966153E-05        -0.114987783E-03         0.190298388E-02
         0.454805876E-05        -0.569611161E-04         0.429070084E-02
         0.910822404E-05        -0.113838658E-03         0.429088394E-02
         0.136635376E-04        -0.170789352E-03         0.429118915E-02
         0.521773767E-05        -0.745260268E-04         0.758391746E-02
         0.104606014E-04        -0.148894276E-03         0.758408278E-02
         0.156998020E-04        -0.223397904E-03         0.758435785E-02
         0.156998027E-04         0.223397903E-03         0.758435783E-02
         0.104606019E-04         0.148894276E-03         0.758408276E-02
         0.521773789E-05         0.745260267E-04         0.758391744E-02
         0.162717491E-04         0.272526567E-03         0.117259381E-01
         0.108405172E-04         0.181659185E-03         0.117256813E-01
         0.540598881E-05         0.908763146E-04         0.117255273E-01
         0.159344566E-04         0.318229955E-03         0.166579179E-01
         0.106152273E-04         0.212136169E-03         0.166576820E-01
         0.529302161E-05         0.106097919E-03         0.166575408E-01
         0.337112419E-12         0.224597763E-03         0.784619690E-02
         0.224656888E-12         0.149735426E-03         0.784593199E-02
         0.112215082E-12         0.748774415E-04         0.784577305E-02
         0.428095492E-12         0.272603702E-03         0.119973898E-01
         0.285229089E-12         0.181712149E-03         0.119971387E-01
         0.142390898E-12         0.908994889E-04         0.119969880E-01
         0.482733498E-12         0.317650564E-03         0.169237797E-01
         0.321585019E-12         0.211730425E-03         0.169235470E-01
         0.160469010E-12         0.105926156E-03         0.169234073E-01
        -0.156998020E-04         0.223397904E-03         0.758435785E-02
        -0.104606014E-04         0.148894276E-03         0.758408278E-02
        -0.521773767E-05         0.745260268E-04         0.758391746E-02
        -0.162717482E-04         0.272526568E-03         0.117259381E-01
        -0.108405166E-04         0.181659186E-03         0.117256813E-01
        -0.540598853E-05         0.908763147E-04         0.117255273E-01
        -0.159344556E-04         0.318229955E-03         0.166579179E-01
        -0.106152267E-04         0.212136169E-03         0.166576821E-01
        -0.529302129E-05         0.106097919E-03         0.166575408E-01
         0.521773789E-05         0.745260267E-04         0.758391744E-02
        -0.151192084E-15        -0.693882021E-15         0.758385943E-02
        -0.521773789E-05        -0.745260267E-04         0.758391744E-02
         0.540598881E-05         0.908763146E-04         0.117255273E-01
        -0.265717299E-15        -0.880958912E-15         0.117254735E-01
        -0.540598881E-05        -0.908763146E-04         0.117255273E-01
         0.529302161E-05         0.106097919E-03         0.166575408E-01
        -0.404378446E-15        -0.107662577E-14         0.166574916E-01
        -0.529302161E-05        -0.106097919E-03         0.166575408E-01
         0.112215082E-12         0.748774415E-04         0.784577305E-02
        -0.133356654E-15        -0.430249190E-15         0.784571782E-02
        -0.112481696E-12        -0.748774415E-04         0.784577305E-02
         0.142390898E-12         0.908994889E-04         0.119969880E-01
        -0.257657526E-15        -0.523203315E-15         0.119969352E-01
        -0.142906171E-12        -0.908994889E-04         0.119969880E-01
         0.160469010E-12         0.105926156E-03         0.169234073E-01
        -0.430608095E-15        -0.621993952E-15         0.169233582E-01
        -0.161330784E-12        -0.105926156E-03         0.169234073E-01
        -0.521773767E-05         0.745260268E-04         0.758391746E-02
        -0.136474926E-15        -0.778224769E-16         0.758385946E-02
         0.521773767E-05        -0.745260268E-04         0.758391746E-02
        -0.540598853E-05         0.908763147E-04         0.117255273E-01
        -0.247728986E-15        -0.892436362E-16         0.117254735E-01
         0.540598853E-05        -0.908763147E-04         0.117255273E-01
        -0.529302129E-05         0.106097919E-03         0.166575408E-01
        -0.384828677E-15        -0.934436784E-16         0.166574916E-01
         0.529302129E-05        -0.106097919E-03         0.166575408E-01
        -0.521773789E-05        -0.745260267E-04         0.758391744E-02
        -0.104606019E-04        -0.148894276E-03         0.758408276E-02
        -0.156998027E-04        -0.223397903E-03         0.758435783E-02
        -0.540598881E-05        -0.908763146E-04         0.117255273E-01
        -0.108405172E-04        -0.181659185E-03         0.117256813E-01
        -0.162717491E-04        -0.272526567E-03         0.117259381E-01
        -0.529302161E-05        -0.106097919E-03         0.166575408E-01
        -0.106152273E-04        -0.212136169E-03         0.166576820E-01
        -0.159344566E-04        -0.318229955E-03         0.166579179E-01
        -0.112481696E-12        -0.748774415E-04         0.784577305E-02
        -0.224923580E-12        -0.149735426E-03         0.784593199E-02
        -0.337379315E-12        -0.224597763E-03         0.784619690E-02
        -0.142906171E-12        -0.908994889E-04         0.119969880E-01
        -0.285744334E-12        -0.181712149E-03         0.119971387E-01
        -0.428610674E-12        -0.272603702E-03         0.119973898E-01
        -0.161330784E-12        -0.105926156E-03         0.169234073E-01
        -0.322446257E-12        -0.211730425E-03         0.169235470E-01
        -0.483593809E-12        -0.317650564E-03         0.169237797E-01
         0.521773767E-05        -0.745260268E-04         0.758391746E-02
         0.104606014E-04        -0.148894276E-03         0.758408278E-02
         0.156998020E-04        -0.223397904E-03         0.758435785E-02
         0.540598853E-05        -0.908763147E-04         0.117255273E-01
         0.108405166E-04        -0.181659186E-03         0.117256813E-01
         0.162717482E-04        -0.272526568E-03         0.117259381E-01
         0.529302129E-05        -0.106097919E-03         0.166575408E-01
         0.106152267E-04        -0.212136169E-03         0.166576821E-01
         0.159344556E-04        -0.318229955E-03         0.166579179E-01
         0.159344566E-04         0.318229955E-03         0.166579179E-01
         0.106152273E-04         0.212136169E-03         0.166576820E-01
         0.529302161E-05         0.106097919E-03         0.166575408E-01
         0.151110604E-04         0.360611733E-03         0.223237118E-01
         0.100663825E-04         0.240381658E-03         0.223234956E-01
         0.501900589E-05         0.120239897E-03         0.223233659E-01
         0.140469029E-04         0.399745236E-03         0.286685997E-01
         0.935745282E-05         0.266465553E-03         0.286684010E-01
         0.466550956E-05         0.133291375E-03         0.286682817E-01
         0.482733498E-12         0.317650564E-03         0.169237797E-01
         0.321585019E-12         0.211730425E-03         0.169235470E-01
         0.160469010E-12         0.105926156E-03         0.169234073E-01
         0.492996771E-12         0.359666944E-03         0.225758559E-01
         0.328339732E-12         0.239756497E-03         0.225756412E-01
         0.163724323E-12         0.119919146E-03         0.225755123E-01
         0.449199453E-12         0.398632656E-03         0.289029894E-01
         0.299049012E-12         0.265740719E-03         0.289027913E-01
         0.148937853E-12         0.132901238E-03         0.289026724E-01
        -0.159344556E-04         0.318229955E-03         0.166579179E-01
        -0.106152267E-04         0.212136169E-03         0.166576821E-01
        -0.529302129E-05         0.106097919E-03         0.166575408E-01
        -0.151110594E-04         0.360611733E-03         0.223237119E-01
        -0.100663819E-04         0.240381658E-03         0.223234957E-01
        -0.501900556E-05         0.120239897E-03         0.223233660E-01
        -0.140469020E-04         0.399745236E-03         0.286685997E-01
        -0.935745222E-05         0.266465553E-03         0.286684010E-01